 Entering Gaussian System, Link 0=g09
 Initial command:
 /opt/g09/l1.exe /opt/g09/Gau-24142.inp -scrdir=/opt/g09/
 Entering Link 1 = /opt/g09/l1.exe PID=     24144.
  
 Copyright (c) 1988,1990,1992,1993,1995,1998,2003,2009,2011,
            Gaussian, Inc.  All Rights Reserved.
  
 This is part of the Gaussian(R) 09 program.  It is based on
 the Gaussian(R) 03 system (copyright 2003, Gaussian, Inc.),
 the Gaussian(R) 98 system (copyright 1998, Gaussian, Inc.),
 the Gaussian(R) 94 system (copyright 1995, Gaussian, Inc.),
 the Gaussian 92(TM) system (copyright 1992, Gaussian, Inc.),
 the Gaussian 90(TM) system (copyright 1990, Gaussian, Inc.),
 the Gaussian 88(TM) system (copyright 1988, Gaussian, Inc.),
 the Gaussian 86(TM) system (copyright 1986, Carnegie Mellon
 University), and the Gaussian 82(TM) system (copyright 1983,
 Carnegie Mellon University). Gaussian is a federally registered
 trademark of Gaussian, Inc.
  
 This software contains proprietary and confidential information,
 including trade secrets, belonging to Gaussian, Inc.
  
 This software is provided under written license and may be
 used, copied, transmitted, or stored only in accord with that
 written license.
  
 The following legend is applicable only to US Government
 contracts under FAR:
  
                    RESTRICTED RIGHTS LEGEND
  
 Use, reproduction and disclosure by the US Government is
 subject to restrictions as set forth in subparagraphs (a)
 and (c) of the Commercial Computer Software - Restricted
 Rights clause in FAR 52.227-19.
  
 Gaussian, Inc.
 340 Quinnipiac St., Bldg. 40, Wallingford CT 06492
  
  
 ---------------------------------------------------------------
 Warning -- This program may not be used in any manner that
 competes with the business of Gaussian, Inc. or will provide
 assistance to any competitor of Gaussian, Inc.  The licensee
 of this program is prohibited from giving any competitor of
 Gaussian, Inc. access to this program.  By using this program,
 the user acknowledges that Gaussian, Inc. is engaged in the
 business of creating and licensing software in the field of
 computational chemistry and represents and warrants to the
 licensee that it is not a competitor of Gaussian, Inc. and that
 it will not use this program in any manner prohibited above.
 ---------------------------------------------------------------
  

 Cite this work as:
 Gaussian 09, Revision C.01,
 M. J. Frisch, G. W. Trucks, H. B. Schlegel, G. E. Scuseria, 
 M. A. Robb, J. R. Cheeseman, G. Scalmani, V. Barone, B. Mennucci, 
 G. A. Petersson, H. Nakatsuji, M. Caricato, X. Li, H. P. Hratchian, 
 A. F. Izmaylov, J. Bloino, G. Zheng, J. L. Sonnenberg, M. Hada, 
 M. Ehara, K. Toyota, R. Fukuda, J. Hasegawa, M. Ishida, T. Nakajima, 
 Y. Honda, O. Kitao, H. Nakai, T. Vreven, J. A. Montgomery, Jr., 
 J. E. Peralta, F. Ogliaro, M. Bearpark, J. J. Heyd, E. Brothers, 
 K. N. Kudin, V. N. Staroverov, T. Keith, R. Kobayashi, J. Normand, 
 K. Raghavachari, A. Rendell, J. C. Burant, S. S. Iyengar, J. Tomasi, 
 M. Cossi, N. Rega, J. M. Millam, M. Klene, J. E. Knox, J. B. Cross, 
 V. Bakken, C. Adamo, J. Jaramillo, R. Gomperts, R. E. Stratmann, 
 O. Yazyev, A. J. Austin, R. Cammi, C. Pomelli, J. W. Ochterski, 
 R. L. Martin, K. Morokuma, V. G. Zakrzewski, G. A. Voth, 
 P. Salvador, J. J. Dannenberg, S. Dapprich, A. D. Daniels, 
 O. Farkas, J. B. Foresman, J. V. Ortiz, J. Cioslowski, 
 and D. J. Fox, Gaussian, Inc., Wallingford CT, 2010.
 
 ******************************************
 Gaussian 09:  EM64L-G09RevC.01 23-Sep-2011
                10-Jul-2019 
 ******************************************
 %nprocs=1
 Will use up to    1 processors via shared memory.
 %mem=2GB
 --------------
 #hf/6-31g(d,p)
 --------------
 1/38=1/1;
 2/12=2,17=6,18=5,40=1/2;
 3/5=1,6=6,7=101,11=9,16=1,25=1,30=1/1,2,3;
 4//1;
 5/5=2,38=5/2;
 6/7=2,8=2,9=2,10=2,28=1/1;
 99/5=1,9=1/99;
 ------------------------------------
 molecule_~/github/db_singletoxygen 2
 ------------------------------------
 Charge =  0 Multiplicity = 1
 Symbolic Z-Matrix:
 C                     1.11194   0.00511  -0.00676 
 C                     2.44773   0.00511  -0.00676 
 H                     0.55208  -0.25919   0.88486 
 H                     0.55208   0.26941  -0.89838 
 H                     3.0076   -0.25919   0.88486 
 H                     3.0076    0.26941  -0.89838 
 
                          Input orientation:                          
 ---------------------------------------------------------------------
 Center     Atomic      Atomic             Coordinates (Angstroms)
 Number     Number       Type             X           Y           Z
 ---------------------------------------------------------------------
      1          6           0        1.111940    0.005110   -0.006760
      2          6           0        2.447730    0.005110   -0.006760
      3          1           0        0.552080   -0.259190    0.884860
      4          1           0        0.552080    0.269410   -0.898380
      5          1           0        3.007600   -0.259190    0.884860
      6          1           0        3.007600    0.269410   -0.898380
 ---------------------------------------------------------------------
                    Distance matrix (angstroms):
                    1          2          3          4          5
     1  C    0.000000
     2  C    1.335790   0.000000
     3  H    1.085488   2.111476   0.000000
     4  H    1.085488   2.111476   1.859936   0.000000
     5  H    2.111485   1.085493   2.455520   3.080413   0.000000
     6  H    2.111485   1.085493   3.080413   2.455520   1.859936
                    6
     6  H    0.000000
 Stoichiometry    C2H4
 Framework group  C2V[C2(CC),SGV(H4)]
 Deg. of freedom     5
 Full point group                 C2V     NOp   4
 Largest Abelian subgroup         C2V     NOp   4
 Largest concise Abelian subgroup C2      NOp   2
                         Standard orientation:                         
 ---------------------------------------------------------------------
 Center     Atomic      Atomic             Coordinates (Angstroms)
 Number     Number       Type             X           Y           Z
 ---------------------------------------------------------------------
      1          6           0        0.000000    0.000000    0.667896
      2          6           0        0.000000    0.000000   -0.667894
      3          1           0        0.000000    0.929968    1.227756
      4          1           0        0.000000   -0.929968    1.227756
      5          1           0        0.000000    0.929968   -1.227764
      6          1           0        0.000000   -0.929968   -1.227764
 ---------------------------------------------------------------------
 Rotational constants (GHZ):    144.9559127     30.1129679     24.9333447
 Standard basis: 6-31G(d,p) (6D, 7F)
 There are    24 symmetry adapted basis functions of A1  symmetry.
 There are     4 symmetry adapted basis functions of A2  symmetry.
 There are     8 symmetry adapted basis functions of B1  symmetry.
 There are    14 symmetry adapted basis functions of B2  symmetry.
 Integral buffers will be    131072 words long.
 Raffenetti 1 integral format.
 Two-electron integral symmetry is turned on.
    50 basis functions,    84 primitive gaussians,    50 cartesian basis functions
     8 alpha electrons        8 beta electrons
       nuclear repulsion energy        33.3199921689 Hartrees.
 NAtoms=    6 NActive=    6 NUniq=    4 SFac= 2.25D+00 NAtFMM=   60 NAOKFM=F Big=F
 One-electron integrals computed using PRISM.
 NBasis=    50 RedAO= T  NBF=    24     4     8    14
 NBsUse=    50 1.00D-06 NBFU=    24     4     8    14
 Harris functional with IExCor=  205 diagonalized for initial guess.
 ExpMin= 1.61D-01 ExpMax= 3.05D+03 ExpMxC= 4.57D+02 IAcc=1 IRadAn=         1 AccDes= 0.00D+00
 HarFok:  IExCor=  205 AccDes= 0.00D+00 IRadAn=         1 IDoV= 1
 ScaDFX=  1.000000  1.000000  1.000000  1.000000
 FoFCou: FMM=F IPFlag=           0 FMFlag=      100000 FMFlg1=           0
         NFxFlg=           0 DoJE=T BraDBF=F KetDBF=T FulRan=T
         Omega=  0.000000  0.000000  1.000000  0.000000  0.000000 ICntrl=     500 IOpCl=  0
         NMat0=    1 NMatS0=    1 NMatT0=    0 NMatD0=    1 NMtDS0=    0 NMtDT0=    0
         I1Cent=           4 NGrid=           0.
 Petite list used in FoFCou.
 Initial guess orbital symmetries:
       Occupied  (A1) (A1) (A1) (A1) (B2) (A1) (B2) (B1)
       Virtual   (B1) (A1) (B2) (A1) (B2) (A1) (A1) (B1) (B2) (B1)
                 (A1) (A1) (B2) (B2) (A1) (A1) (A1) (B2) (B1) (A2)
                 (A2) (A1) (B2) (A1) (A1) (B2) (B1) (B2) (B1) (A2)
                 (A1) (B1) (B2) (A2) (A1) (A1) (A1) (B2) (A1) (B2)
                 (A1) (A1)
 The electronic state of the initial guess is 1-A1.
 Requested convergence on RMS density matrix=1.00D-08 within 128 cycles.
 Requested convergence on MAX density matrix=1.00D-06.
 Requested convergence on             energy=1.00D-06.
 No special actions if energy rises.
 Keep R1 ints in memory in canonical form, NReq=1659902.
 SCF Done:  E(RHF) =  -78.0380433912     A.U. after    9 cycles
             Convg  =    0.2238D-08             -V/T =  2.0022

 **********************************************************************

            Population analysis using the SCF density.

 **********************************************************************

 Orbital symmetries:
       Occupied  (A1) (A1) (A1) (A1) (B2) (A1) (B2) (B1)
       Virtual   (B1) (A1) (B2) (A1) (B2) (A1) (A1) (B2) (B1) (A1)
                 (B1) (A1) (B2) (B2) (A1) (A1) (A1) (B2) (A2) (B1)
                 (A2) (A1) (B2) (A1) (B2) (A1) (B1) (B2) (B1) (A2)
                 (A1) (B1) (A2) (B2) (A1) (A1) (A1) (B2) (A1) (B2)
                 (A1) (A1)
 The electronic state is 1-A1.
 Alpha  occ. eigenvalues --  -11.22958 -11.22795  -1.02668  -0.78545  -0.63733
 Alpha  occ. eigenvalues --   -0.57750  -0.50226  -0.37004
 Alpha virt. eigenvalues --    0.17835   0.26270   0.29185   0.30816   0.38936
 Alpha virt. eigenvalues --    0.48876   0.66144   0.76701   0.77605   0.84948
 Alpha virt. eigenvalues --    0.88977   0.95378   1.08309   1.11681   1.16906
 Alpha virt. eigenvalues --    1.17745   1.32894   1.45786   1.65032   1.66564
 Alpha virt. eigenvalues --    1.80650   2.14255   2.19387   2.26107   2.32448
 Alpha virt. eigenvalues --    2.35267   2.44002   2.53037   2.67309   2.77222
 Alpha virt. eigenvalues --    2.84333   2.93758   3.01559   3.03272   3.07933
 Alpha virt. eigenvalues --    3.34606   3.53791   3.71189   3.86601   4.13223
 Alpha virt. eigenvalues --    4.59734   4.91171
          Condensed to atoms (all electrons):
              1          2          3          4          5          6
     1  C    4.884341   0.637743   0.407979   0.407979  -0.040417  -0.040417
     2  C    0.637743   4.884343  -0.040418  -0.040418   0.407978   0.407978
     3  H    0.407979  -0.040418   0.534851  -0.029865  -0.004287   0.003136
     4  H    0.407979  -0.040418  -0.029865   0.534851   0.003136  -0.004287
     5  H   -0.040417   0.407978  -0.004287   0.003136   0.534853  -0.029865
     6  H   -0.040417   0.407978   0.003136  -0.004287  -0.029865   0.534853
 Mulliken atomic charges:
              1
     1  C   -0.257207
     2  C   -0.257207
     3  H    0.128604
     4  H    0.128604
     5  H    0.128603
     6  H    0.128603
 Sum of Mulliken atomic charges =   0.00000
 Mulliken charges with hydrogens summed into heavy atoms:
              1
     1  C    0.000001
     2  C   -0.000001
 Sum of Mulliken charges with hydrogens summed into heavy atoms =   0.00000
 Electronic spatial extent (au):  <R**2>=             82.5278
 Charge=              0.0000 electrons
 Dipole moment (field-independent basis, Debye):
    X=              0.0000    Y=              0.0000    Z=              0.0000  Tot=              0.0000
 Quadrupole moment (field-independent basis, Debye-Ang):
   XX=            -15.4573   YY=            -12.1597   ZZ=            -12.0968
   XY=              0.0000   XZ=              0.0000   YZ=              0.0000
 Traceless Quadrupole moment (field-independent basis, Debye-Ang):
   XX=             -2.2194   YY=              1.0782   ZZ=              1.1412
   XY=              0.0000   XZ=              0.0000   YZ=              0.0000
 Octapole moment (field-independent basis, Debye-Ang**2):
  XXX=              0.0000  YYY=              0.0000  ZZZ=              0.0000  XYY=              0.0000
  XXY=              0.0000  XXZ=              0.0000  XZZ=              0.0000  YZZ=              0.0000
  YYZ=              0.0000  XYZ=              0.0000
 Hexadecapole moment (field-independent basis, Debye-Ang**3):
 XXXX=            -16.5784 YYYY=            -26.1446 ZZZZ=            -66.9935 XXXY=              0.0000
 XXXZ=              0.0000 YYYX=              0.0000 YYYZ=              0.0000 ZZZX=              0.0000
 ZZZY=              0.0000 XXYY=             -7.8289 XXZZ=            -14.8899 YYZZ=            -12.8955
 XXYZ=              0.0000 YYXZ=              0.0000 ZZXY=              0.0000
 N-N= 3.331999216886D+01 E-N=-2.478720991754D+02  KE= 7.786960653641D+01
 Symmetry A1   KE= 7.202231896257D+01
 Symmetry A2   KE= 2.816478708811D-33
 Symmetry B1   KE= 1.938752764054D+00
 Symmetry B2   KE= 3.908534809789D+00
 1\1\GINC-ABCSIM\SP\RHF\6-31G(d,p)\C2H4\MATEUS\10-Jul-2019\0\\#hf/6-31g
 (d,p)\\molecule_~/github/db_singletoxygen 2\\0,1\C,0,1.11194,0.00511,-
 0.00676\C,0,2.44773,0.00511,-0.00676\H,0,0.55208,-0.25919,0.88486\H,0,
 0.55208,0.26941,-0.89838\H,0,3.0076,-0.25919,0.88486\H,0,3.0076,0.2694
 1,-0.89838\\Version=EM64L-G09RevC.01\State=1-A1\HF=-78.0380434\RMSD=2.
 238e-09\Dipole=-0.0000002,0.,0.\Quadrupole=0.8484324,-1.4520226,0.6035
 902,0.,0.,-0.6680383\PG=C02V [C2(C1C1),SGV(H4)]\\@


 WHEN YOU'VE SEEN ONE NUCLEAR WAR YOU'VE SEEN THEM ALL.
 Job cpu time:  0 days  0 hours  0 minutes  0.3 seconds.
 File lengths (MBytes):  RWF=      5 Int=      0 D2E=      0 Chk=      1 Scr=      1
 Normal termination of Gaussian 09 at Wed Jul 10 10:54:30 2019.
