 Entering Gaussian System, Link 0=g09
 Initial command:
 /media/mateus/HDD/gaussian-09d01/pgi-14.3/g09/l1.exe "/media/mateus/HDD/gaussian-09d01/pgi-14.3/Gau-25419.inp" -scrdir="/media/mateus/HDD/gaussian-09d01/pgi-14.3/"
 Entering Link 1 = /media/mateus/HDD/gaussian-09d01/pgi-14.3/g09/l1.exe PID=     25421.
  
 Copyright (c) 1988,1990,1992,1993,1995,1998,2003,2009,2013,
            Gaussian, Inc.  All Rights Reserved.
  
 This is part of the Gaussian(R) 09 program.  It is based on
 the Gaussian(R) 03 system (copyright 2003, Gaussian, Inc.),
 the Gaussian(R) 98 system (copyright 1998, Gaussian, Inc.),
 the Gaussian(R) 94 system (copyright 1995, Gaussian, Inc.),
 the Gaussian 92(TM) system (copyright 1992, Gaussian, Inc.),
 the Gaussian 90(TM) system (copyright 1990, Gaussian, Inc.),
 the Gaussian 88(TM) system (copyright 1988, Gaussian, Inc.),
 the Gaussian 86(TM) system (copyright 1986, Carnegie Mellon
 University), and the Gaussian 82(TM) system (copyright 1983,
 Carnegie Mellon University). Gaussian is a federally registered
 trademark of Gaussian, Inc.
  
 This software contains proprietary and confidential information,
 including trade secrets, belonging to Gaussian, Inc.
  
 This software is provided under written license and may be
 used, copied, transmitted, or stored only in accord with that
 written license.
  
 The following legend is applicable only to US Government
 contracts under FAR:
  
                    RESTRICTED RIGHTS LEGEND
  
 Use, reproduction and disclosure by the US Government is
 subject to restrictions as set forth in subparagraphs (a)
 and (c) of the Commercial Computer Software - Restricted
 Rights clause in FAR 52.227-19.
  
 Gaussian, Inc.
 340 Quinnipiac St., Bldg. 40, Wallingford CT 06492
  
  
 ---------------------------------------------------------------
 Warning -- This program may not be used in any manner that
 competes with the business of Gaussian, Inc. or will provide
 assistance to any competitor of Gaussian, Inc.  The licensee
 of this program is prohibited from giving any competitor of
 Gaussian, Inc. access to this program.  By using this program,
 the user acknowledges that Gaussian, Inc. is engaged in the
 business of creating and licensing software in the field of
 computational chemistry and represents and warrants to the
 licensee that it is not a competitor of Gaussian, Inc. and that
 it will not use this program in any manner prohibited above.
 ---------------------------------------------------------------
  

 Cite this work as:
 Gaussian 09, Revision D.01,
 M. J. Frisch, G. W. Trucks, H. B. Schlegel, G. E. Scuseria, 
 M. A. Robb, J. R. Cheeseman, G. Scalmani, V. Barone, B. Mennucci, 
 G. A. Petersson, H. Nakatsuji, M. Caricato, X. Li, H. P. Hratchian, 
 A. F. Izmaylov, J. Bloino, G. Zheng, J. L. Sonnenberg, M. Hada, 
 M. Ehara, K. Toyota, R. Fukuda, J. Hasegawa, M. Ishida, T. Nakajima, 
 Y. Honda, O. Kitao, H. Nakai, T. Vreven, J. A. Montgomery, Jr., 
 J. E. Peralta, F. Ogliaro, M. Bearpark, J. J. Heyd, E. Brothers, 
 K. N. Kudin, V. N. Staroverov, T. Keith, R. Kobayashi, J. Normand, 
 K. Raghavachari, A. Rendell, J. C. Burant, S. S. Iyengar, J. Tomasi, 
 M. Cossi, N. Rega, J. M. Millam, M. Klene, J. E. Knox, J. B. Cross, 
 V. Bakken, C. Adamo, J. Jaramillo, R. Gomperts, R. E. Stratmann, 
 O. Yazyev, A. J. Austin, R. Cammi, C. Pomelli, J. W. Ochterski, 
 R. L. Martin, K. Morokuma, V. G. Zakrzewski, G. A. Voth, 
 P. Salvador, J. J. Dannenberg, S. Dapprich, A. D. Daniels, 
 O. Farkas, J. B. Foresman, J. V. Ortiz, J. Cioslowski, 
 and D. J. Fox, Gaussian, Inc., Wallingford CT, 2013.
 
 ******************************************
 Gaussian 09:  ES64L-G09RevD.01 24-Apr-2013
                 1-Oct-2019 
 ******************************************
 %nprocs=8
 Will use up to    8 processors via shared memory.
 %mem=16GB
 %chk=/home/mateus/github/db_singletoxygen/chk/molecule_1.chk
 ------------------------
 #opt freq b3lyp/6-31g(d)
 ------------------------
 1/14=-1,18=20,19=15,26=3,38=1/1,3;
 2/9=110,12=2,17=6,18=5,40=1/2;
 3/5=1,6=6,7=1,11=2,16=1,25=1,30=1,71=1,74=-5/1,2,3;
 4//1;
 5/5=2,38=5/2;
 6/7=2,8=2,9=2,10=2,28=1/1;
 7//1,2,3,16;
 1/14=-1,18=20,19=15,26=3/3(2);
 2/9=110/2;
 99//99;
 2/9=110/2;
 3/5=1,6=6,7=1,11=2,16=1,25=1,30=1,71=1,74=-5/1,2,3;
 4/5=5,16=3,69=1/1;
 5/5=2,38=5/2;
 7//1,2,3,16;
 1/14=-1,18=20,19=15,26=3/3(-5);
 2/9=110/2;
 6/7=2,8=2,9=2,10=2,19=2,28=1/1;
 99/9=1/99;
 ---------------
 molecule_1 CCCC
 ---------------
 Symbolic Z-matrix:
 Charge =  0 Multiplicity = 1
 C                     1.04238  -0.01832  -0.07837 
 C                     2.56227  -0.03099  -0.07335 
 C                     3.10542  -1.35782   0.45284 
 C                     4.62531  -1.37048   0.45786 
 H                     0.67222   0.93917  -0.45809 
 H                     0.64645  -0.1597    0.93224 
 H                     0.64645  -0.81391  -0.7174 
 H                     2.92782   0.7944    0.54852 
 H                     2.92782   0.14386  -1.09188 
 H                     2.73987  -2.1832   -0.16903 
 H                     2.73987  -1.53266   1.47137 
 H                     5.02124  -1.2291   -0.55274 
 H                     4.99547  -2.32797   0.83758 
 H                     5.02124  -0.57489   1.09689 
 

 GradGradGradGradGradGradGradGradGradGradGradGradGradGradGradGradGradGrad
 Berny optimization.
 Initialization pass.
                           ----------------------------
                           !    Initial Parameters    !
                           ! (Angstroms and Degrees)  !
 --------------------------                            --------------------------
 ! Name  Definition              Value          Derivative Info.                !
 --------------------------------------------------------------------------------
 ! R1    R(1,2)                  1.52           estimate D2E/DX2                !
 ! R2    R(1,5)                  1.0945         estimate D2E/DX2                !
 ! R3    R(1,6)                  1.0946         estimate D2E/DX2                !
 ! R4    R(1,7)                  1.0946         estimate D2E/DX2                !
 ! R5    R(2,3)                  1.5272         estimate D2E/DX2                !
 ! R6    R(2,8)                  1.0962         estimate D2E/DX2                !
 ! R7    R(2,9)                  1.0962         estimate D2E/DX2                !
 ! R8    R(3,4)                  1.52           estimate D2E/DX2                !
 ! R9    R(3,10)                 1.0962         estimate D2E/DX2                !
 ! R10   R(3,11)                 1.0962         estimate D2E/DX2                !
 ! R11   R(4,12)                 1.0946         estimate D2E/DX2                !
 ! R12   R(4,13)                 1.0945         estimate D2E/DX2                !
 ! R13   R(4,14)                 1.0946         estimate D2E/DX2                !
 ! A1    A(2,1,5)              110.2804         estimate D2E/DX2                !
 ! A2    A(2,1,6)              110.9517         estimate D2E/DX2                !
 ! A3    A(2,1,7)              110.9515         estimate D2E/DX2                !
 ! A4    A(5,1,6)              108.1181         estimate D2E/DX2                !
 ! A5    A(5,1,7)              108.118          estimate D2E/DX2                !
 ! A6    A(6,1,7)              108.3192         estimate D2E/DX2                !
 ! A7    A(1,2,3)              111.347          estimate D2E/DX2                !
 ! A8    A(1,2,8)              109.2117         estimate D2E/DX2                !
 ! A9    A(1,2,9)              109.2121         estimate D2E/DX2                !
 ! A10   A(3,2,8)              109.8837         estimate D2E/DX2                !
 ! A11   A(3,2,9)              109.8841         estimate D2E/DX2                !
 ! A12   A(8,2,9)              107.206          estimate D2E/DX2                !
 ! A13   A(2,3,4)              111.3466         estimate D2E/DX2                !
 ! A14   A(2,3,10)             109.8834         estimate D2E/DX2                !
 ! A15   A(2,3,11)             109.8836         estimate D2E/DX2                !
 ! A16   A(4,3,10)             109.2121         estimate D2E/DX2                !
 ! A17   A(4,3,11)             109.2122         estimate D2E/DX2                !
 ! A18   A(10,3,11)            107.2067         estimate D2E/DX2                !
 ! A19   A(3,4,12)             110.952          estimate D2E/DX2                !
 ! A20   A(3,4,13)             110.2801         estimate D2E/DX2                !
 ! A21   A(3,4,14)             110.9517         estimate D2E/DX2                !
 ! A22   A(12,4,13)            108.1181         estimate D2E/DX2                !
 ! A23   A(12,4,14)            108.319          estimate D2E/DX2                !
 ! A24   A(13,4,14)            108.118          estimate D2E/DX2                !
 ! D1    D(5,1,2,3)           -179.9999         estimate D2E/DX2                !
 ! D2    D(5,1,2,8)             58.4737         estimate D2E/DX2                !
 ! D3    D(5,1,2,9)            -58.4729         estimate D2E/DX2                !
 ! D4    D(6,1,2,3)             60.232          estimate D2E/DX2                !
 ! D5    D(6,1,2,8)            -61.2944         estimate D2E/DX2                !
 ! D6    D(6,1,2,9)           -178.241          estimate D2E/DX2                !
 ! D7    D(7,1,2,3)            -60.2321         estimate D2E/DX2                !
 ! D8    D(7,1,2,8)            178.2415         estimate D2E/DX2                !
 ! D9    D(7,1,2,9)             61.2949         estimate D2E/DX2                !
 ! D10   D(1,2,3,4)           -179.9999         estimate D2E/DX2                !
 ! D11   D(1,2,3,10)            58.8657         estimate D2E/DX2                !
 ! D12   D(1,2,3,11)           -58.8652         estimate D2E/DX2                !
 ! D13   D(8,2,3,4)            -58.8655         estimate D2E/DX2                !
 ! D14   D(8,2,3,10)          -179.9999         estimate D2E/DX2                !
 ! D15   D(8,2,3,11)            62.2692         estimate D2E/DX2                !
 ! D16   D(9,2,3,4)             58.865          estimate D2E/DX2                !
 ! D17   D(9,2,3,10)           -62.2694         estimate D2E/DX2                !
 ! D18   D(9,2,3,11)           179.9997         estimate D2E/DX2                !
 ! D19   D(2,3,4,12)           -60.2321         estimate D2E/DX2                !
 ! D20   D(2,3,4,13)           179.9999         estimate D2E/DX2                !
 ! D21   D(2,3,4,14)            60.2322         estimate D2E/DX2                !
 ! D22   D(10,3,4,12)           61.2939         estimate D2E/DX2                !
 ! D23   D(10,3,4,13)          -58.4741         estimate D2E/DX2                !
 ! D24   D(10,3,4,14)         -178.2418         estimate D2E/DX2                !
 ! D25   D(11,3,4,12)          178.2416         estimate D2E/DX2                !
 ! D26   D(11,3,4,13)           58.4736         estimate D2E/DX2                !
 ! D27   D(11,3,4,14)          -61.2941         estimate D2E/DX2                !
 --------------------------------------------------------------------------------
 Trust Radius=3.00D-01 FncErr=1.00D-07 GrdErr=1.00D-06
 Number of steps in this run=     74 maximum allowed number of steps=    100.
 GradGradGradGradGradGradGradGradGradGradGradGradGradGradGradGradGradGrad

                          Input orientation:                          
 ---------------------------------------------------------------------
 Center     Atomic      Atomic             Coordinates (Angstroms)
 Number     Number       Type             X           Y           Z
 ---------------------------------------------------------------------
      1          6           0        1.042380   -0.018320   -0.078370
      2          6           0        2.562270   -0.030990   -0.073350
      3          6           0        3.105420   -1.357820    0.452840
      4          6           0        4.625310   -1.370480    0.457860
      5          1           0        0.672220    0.939170   -0.458090
      6          1           0        0.646450   -0.159700    0.932240
      7          1           0        0.646450   -0.813910   -0.717400
      8          1           0        2.927820    0.794400    0.548520
      9          1           0        2.927820    0.143860   -1.091880
     10          1           0        2.739870   -2.183200   -0.169030
     11          1           0        2.739870   -1.532660    1.471370
     12          1           0        5.021240   -1.229100   -0.552740
     13          1           0        4.995470   -2.327970    0.837580
     14          1           0        5.021240   -0.574890    1.096890
 ---------------------------------------------------------------------
                    Distance matrix (angstroms):
                    1          2          3          4          5
     1  C    0.000000
     2  C    1.519951   0.000000
     3  C    2.516461   1.527208   0.000000
     4  C    3.866945   2.516456   1.519951   0.000000
     5  H    1.094529   2.159056   3.467913   4.669086   0.000000
     6  H    1.094569   2.167520   2.777022   4.185971   1.772342
     7  H    1.094570   2.167517   2.777019   4.185969   1.772342
     8  H    2.146716   1.096183   2.161654   2.752526   2.474258
     9  H    2.146716   1.096176   2.161653   2.752525   2.474255
    10  H    2.752526   2.161644   1.096176   2.146716   3.756052
    11  H    2.752525   2.161646   1.096175   2.146716   3.756053
    12  H    4.185970   2.777016   2.167516   1.094560   4.860486
    13  H    4.669086   3.467906   2.159052   1.094529   5.571665
    14  H    4.185969   2.777017   2.167521   1.094570   4.860485
                    6          7          8          9         10
     6  H    0.000000
     7  H    1.774628   0.000000
     8  H    2.502438   3.064941   0.000000
     9  H    3.064940   2.502440   1.764685   0.000000
    10  H    3.112837   2.560873   3.068600   2.510415   0.000000
    11  H    2.560876   3.112832   2.510415   3.068598   1.764685
    12  H    4.742106   4.397531   3.112834   2.560878   2.502437
    13  H    4.860487   4.860485   3.756052   3.756053   2.474258
    14  H    4.397531   4.742106   2.560873   3.112832   3.064941
                   11         12         13         14
    11  H    0.000000
    12  H    3.064934   0.000000
    13  H    2.474255   1.772334   0.000000
    14  H    2.502440   1.774618   1.772342   0.000000
 Stoichiometry    C4H10
 Framework group  C1[X(C4H10)]
 Deg. of freedom    36
 Full point group                 C1      NOp   1
 Largest Abelian subgroup         C1      NOp   1
 Largest concise Abelian subgroup C1      NOp   1
                         Standard orientation:                         
 ---------------------------------------------------------------------
 Center     Atomic      Atomic             Coordinates (Angstroms)
 Number     Number       Type             X           Y           Z
 ---------------------------------------------------------------------
      1          6           0       -1.929398   -0.125469    0.000001
      2          6           0       -0.555274    0.524173   -0.000003
      3          6           0        0.555277   -0.524179    0.000000
      4          6           0        1.929396    0.125472   -0.000001
      5          1           0       -2.711192    0.640554   -0.000003
      6          1           0       -2.066328   -0.751571    0.887316
      7          1           0       -2.066326   -0.751576   -0.887311
      8          1           0       -0.460513    1.167681    0.882344
      9          1           0       -0.460513    1.167681   -0.882342
     10          1           0        0.460511   -1.167678   -0.882343
     11          1           0        0.460512   -1.167678    0.882342
     12          1           0        2.066328    0.751571   -0.887306
     13          1           0        2.711190   -0.640551    0.000003
     14          1           0        2.066325    0.751579    0.887312
 ---------------------------------------------------------------------
 Rotational constants (GHZ):     23.0953733      3.7176445      3.4806176
 Standard basis: 6-31G(d) (6D, 7F)
 There are    80 symmetry adapted cartesian basis functions of A   symmetry.
 There are    80 symmetry adapted basis functions of A   symmetry.
    80 basis functions,   152 primitive gaussians,    80 cartesian basis functions
    17 alpha electrons       17 beta electrons
       nuclear repulsion energy       131.2165475506 Hartrees.
 NAtoms=   14 NActive=   14 NUniq=   14 SFac= 1.00D+00 NAtFMM=   60 NAOKFM=F Big=F
 Integral buffers will be    131072 words long.
 Raffenetti 2 integral format.
 Two-electron integral symmetry is turned on.
 One-electron integrals computed using PRISM.
 NBasis=    80 RedAO= T EigKep=  4.45D-03  NBF=    80
 NBsUse=    80 1.00D-06 EigRej= -1.00D+00 NBFU=    80
 ExpMin= 1.61D-01 ExpMax= 3.05D+03 ExpMxC= 4.57D+02 IAcc=1 IRadAn=         1 AccDes= 0.00D+00
 Harris functional with IExCor=  402 and IRadAn=       1 diagonalized for initial guess.
 HarFok:  IExCor=  402 AccDes= 0.00D+00 IRadAn=         1 IDoV= 1 UseB2=F ITyADJ=14
 ICtDFT=  3500011 ScaDFX=  1.000000  1.000000  1.000000  1.000000
 FoFCou: FMM=F IPFlag=           0 FMFlag=      100000 FMFlg1=           0
         NFxFlg=           0 DoJE=T BraDBF=F KetDBF=T FulRan=T
         wScrn=  0.000000 ICntrl=     500 IOpCl=  0 I1Cent=   200000004 NGrid=           0
         NMat0=    1 NMatS0=      1 NMatT0=    0 NMatD0=    1 NMtDS0=    0 NMtDT0=    0
 Petite list used in FoFCou.
 Keep R1 ints in memory in canonical form, NReq=6192044.
 Requested convergence on RMS density matrix=1.00D-08 within 128 cycles.
 Requested convergence on MAX density matrix=1.00D-06.
 Requested convergence on             energy=1.00D-06.
 No special actions if energy rises.
 Integral accuracy reduced to 1.0D-05 until final iterations.
 Initial convergence to 1.0D-05 achieved.  Increase integral accuracy.
 SCF Done:  E(RB3LYP) =  -158.457067055     A.U. after   11 cycles
            NFock= 11  Conv=0.50D-08     -V/T= 2.0099

 **********************************************************************

            Population analysis using the SCF density.

 **********************************************************************

 Orbital symmetries:
       Occupied  (A) (A) (A) (A) (A) (A) (A) (A) (A) (A) (A) (A)
                 (A) (A) (A) (A) (A)
       Virtual   (A) (A) (A) (A) (A) (A) (A) (A) (A) (A) (A) (A)
                 (A) (A) (A) (A) (A) (A) (A) (A) (A) (A) (A) (A)
                 (A) (A) (A) (A) (A) (A) (A) (A) (A) (A) (A) (A)
                 (A) (A) (A) (A) (A) (A) (A) (A) (A) (A) (A) (A)
                 (A) (A) (A) (A) (A) (A) (A) (A) (A) (A) (A) (A)
                 (A) (A) (A)
 The electronic state is 1-A.
 Alpha  occ. eigenvalues --  -10.17332 -10.17310 -10.16721 -10.16720  -0.79159
 Alpha  occ. eigenvalues --   -0.72002  -0.62274  -0.57216  -0.46723  -0.42357
 Alpha  occ. eigenvalues --   -0.41249  -0.40851  -0.36394  -0.34666  -0.32969
 Alpha  occ. eigenvalues --   -0.32198  -0.31296
 Alpha virt. eigenvalues --    0.09460   0.12145   0.13442   0.14514   0.17104
 Alpha virt. eigenvalues --    0.18805   0.18815   0.18973   0.20047   0.20126
 Alpha virt. eigenvalues --    0.25432   0.25799   0.26229   0.50329   0.50375
 Alpha virt. eigenvalues --    0.55295   0.55829   0.55976   0.62446   0.65308
 Alpha virt. eigenvalues --    0.66644   0.69676   0.76657   0.79934   0.85545
 Alpha virt. eigenvalues --    0.86073   0.88928   0.90749   0.91558   0.92923
 Alpha virt. eigenvalues --    0.92982   0.95802   0.96841   0.99408   1.02301
 Alpha virt. eigenvalues --    1.04123   1.37867   1.43915   1.45328   1.45410
 Alpha virt. eigenvalues --    1.63432   1.68046   1.84410   1.90543   1.90616
 Alpha virt. eigenvalues --    1.96913   1.97099   2.02746   2.06509   2.18646
 Alpha virt. eigenvalues --    2.26071   2.26117   2.30040   2.40028   2.40489
 Alpha virt. eigenvalues --    2.41595   2.54114   2.67812   2.76539   4.14227
 Alpha virt. eigenvalues --    4.24584   4.35954   4.51699
          Condensed to atoms (all electrons):
               1          2          3          4          5          6
     1  C    5.064021   0.376236  -0.048776   0.004792   0.370826   0.378763
     2  C    0.376236   4.943661   0.398728  -0.048776  -0.029993  -0.035483
     3  C   -0.048776   0.398728   4.943656   0.376237   0.004920  -0.005207
     4  C    0.004792  -0.048776   0.376237   5.064019  -0.000198   0.000058
     5  H    0.370826  -0.029993   0.004920  -0.000198   0.583682  -0.030898
     6  H    0.378763  -0.035483  -0.005207   0.000058  -0.030898   0.579173
     7  H    0.378763  -0.035483  -0.005207   0.000058  -0.030898  -0.032267
     8  H   -0.039448   0.378431  -0.040374  -0.003297  -0.002963  -0.004788
     9  H   -0.039448   0.378431  -0.040373  -0.003297  -0.002963   0.005536
    10  H   -0.003297  -0.040374   0.378432  -0.039447  -0.000027  -0.000434
    11  H   -0.003297  -0.040374   0.378432  -0.039447  -0.000027   0.005220
    12  H    0.000058  -0.005207  -0.035483   0.378764   0.000001   0.000008
    13  H   -0.000198   0.004920  -0.029993   0.370826   0.000003   0.000001
    14  H    0.000058  -0.005207  -0.035483   0.378763   0.000001   0.000001
               7          8          9         10         11         12
     1  C    0.378763  -0.039448  -0.039448  -0.003297  -0.003297   0.000058
     2  C   -0.035483   0.378431   0.378431  -0.040374  -0.040374  -0.005207
     3  C   -0.005207  -0.040374  -0.040373   0.378432   0.378432  -0.035483
     4  C    0.000058  -0.003297  -0.003297  -0.039447  -0.039447   0.378764
     5  H   -0.030898  -0.002963  -0.002963  -0.000027  -0.000027   0.000001
     6  H   -0.032267  -0.004788   0.005536  -0.000434   0.005220   0.000008
     7  H    0.579174   0.005536  -0.004788   0.005221  -0.000434   0.000001
     8  H    0.005536   0.611370  -0.039347   0.005951  -0.005531  -0.000434
     9  H   -0.004788  -0.039347   0.611367  -0.005531   0.005951   0.005220
    10  H    0.005221   0.005951  -0.005531   0.611367  -0.039346  -0.004788
    11  H   -0.000434  -0.005531   0.005951  -0.039346   0.611365   0.005536
    12  H    0.000001  -0.000434   0.005220  -0.004788   0.005536   0.579170
    13  H    0.000001  -0.000027  -0.000027  -0.002963  -0.002963  -0.030898
    14  H    0.000008   0.005221  -0.000434   0.005536  -0.004788  -0.032267
              13         14
     1  C   -0.000198   0.000058
     2  C    0.004920  -0.005207
     3  C   -0.029993  -0.035483
     4  C    0.370826   0.378763
     5  H    0.000003   0.000001
     6  H    0.000001   0.000001
     7  H    0.000001   0.000008
     8  H   -0.000027   0.005221
     9  H   -0.000027  -0.000434
    10  H   -0.002963   0.005536
    11  H   -0.002963  -0.004788
    12  H   -0.030898  -0.032267
    13  H    0.583683  -0.030898
    14  H   -0.030898   0.579173
 Mulliken charges:
               1
     1  C   -0.439054
     2  C   -0.239510
     3  C   -0.239509
     4  C   -0.439055
     5  H    0.138533
     6  H    0.140314
     7  H    0.140314
     8  H    0.129700
     9  H    0.129702
    10  H    0.129702
    11  H    0.129702
    12  H    0.140317
    13  H    0.138532
    14  H    0.140314
 Sum of Mulliken charges =   0.00000
 Mulliken charges with hydrogens summed into heavy atoms:
               1
     1  C   -0.019893
     2  C    0.019891
     3  C    0.019895
     4  C   -0.019893
 Electronic spatial extent (au):  <R**2>=            417.6958
 Charge=              0.0000 electrons
 Dipole moment (field-independent basis, Debye):
    X=              0.0000    Y=              0.0000    Z=              0.0000  Tot=              0.0000
 Quadrupole moment (field-independent basis, Debye-Ang):
   XX=            -29.1640   YY=            -28.1870   ZZ=            -27.5900
   XY=             -0.3239   XZ=              0.0000   YZ=              0.0000
 Traceless Quadrupole moment (field-independent basis, Debye-Ang):
   XX=             -0.8504   YY=              0.1267   ZZ=              0.7236
   XY=             -0.3239   XZ=              0.0000   YZ=              0.0000
 Octapole moment (field-independent basis, Debye-Ang**2):
  XXX=              0.0001  YYY=              0.0000  ZZZ=              0.0000  XYY=              0.0000
  XXY=              0.0001  XXZ=              0.0000  XZZ=              0.0000  YZZ=              0.0000
  YYZ=              0.0000  XYZ=              0.0000
 Hexadecapole moment (field-independent basis, Debye-Ang**3):
 XXXX=           -443.1541 YYYY=            -88.3717 ZZZZ=            -56.1396 XXXY=             -6.1229
 XXXZ=             -0.0002 YYYX=             -1.0815 YYYZ=             -0.0001 ZZZX=             -0.0001
 ZZZY=             -0.0001 XXYY=            -84.9942 XXZZ=            -81.4120 YYZZ=            -22.1065
 XXYZ=             -0.0001 YYXZ=              0.0000 ZZXY=              1.5887
 N-N= 1.312165475506D+02 E-N=-6.278771610269D+02  KE= 1.568990653504D+02
 Calling FoFJK, ICntrl=      2127 FMM=F ISym2X=0 I1Cent= 0 IOpClX= 0 NMat=1 NMatS=1 NMatT=0.
 ***** Axes restored to original set *****
 -------------------------------------------------------------------
 Center     Atomic                   Forces (Hartrees/Bohr)
 Number     Number              X              Y              Z
 -------------------------------------------------------------------
      1        6          -0.003266221    0.005562336   -0.002207198
      2        6          -0.005451416   -0.004709897    0.001872934
      3        6           0.005452628    0.004716649   -0.001871710
      4        6           0.003264710   -0.005564454    0.002212444
      5        1          -0.003415604    0.000350666   -0.000138957
      6        1          -0.001658529   -0.000438447    0.000765933
      7        1          -0.001658787   -0.000843877   -0.000256900
      8        1           0.002375588    0.001042946    0.000276986
      9        1           0.002376632    0.000569888   -0.000920435
     10        1          -0.002376616   -0.001047050   -0.000278916
     11        1          -0.002376857   -0.000571055    0.000921076
     12        1           0.001660226    0.000439103   -0.000771599
     13        1           0.003416112   -0.000350637    0.000139117
     14        1           0.001658133    0.000843828    0.000257225
 -------------------------------------------------------------------
 Cartesian Forces:  Max     0.005564454 RMS     0.002530353

 GradGradGradGradGradGradGradGradGradGradGradGradGradGradGradGradGradGrad
 Berny optimization.
 FormGI is forming the generalized inverse of G from B-inverse, IUseBI=4.
 Internal  Forces:  Max     0.010033961 RMS     0.002811371
 Search for a local minimum.
 Step number   1 out of a maximum of   74
 All quantities printed in internal units (Hartrees-Bohrs-Radians)
 Mixed Optimization -- RFO/linear search
 Second derivative matrix not updated -- first step.
 ITU=  0
     Eigenvalues ---    0.00406   0.00502   0.00502   0.03742   0.03742
     Eigenvalues ---    0.04939   0.04939   0.05621   0.05621   0.05706
     Eigenvalues ---    0.05706   0.08150   0.08150   0.12054   0.12054
     Eigenvalues ---    0.16000   0.16000   0.16000   0.16000   0.16000
     Eigenvalues ---    0.16000   0.21902   0.21902   0.29683   0.30371
     Eigenvalues ---    0.30371   0.34108   0.34109   0.34109   0.34109
     Eigenvalues ---    0.34290   0.34290   0.34290   0.34291   0.34295
     Eigenvalues ---    0.34295
 RFO step:  Lambda=-2.45261720D-03 EMin= 4.06031642D-03
 Linear search not attempted -- first point.
 Iteration  1 RMS(Cart)=  0.03505366 RMS(Int)=  0.00026455
 Iteration  2 RMS(Cart)=  0.00027521 RMS(Int)=  0.00017397
 Iteration  3 RMS(Cart)=  0.00000011 RMS(Int)=  0.00017397
 Variable       Old X    -DE/DX   Delta X   Delta X   Delta X     New X
                                 (Linear)    (Quad)   (Total)
    R1        2.87229   0.01003   0.00000   0.03277   0.03277   2.90506
    R2        2.06836   0.00151   0.00000   0.00439   0.00439   2.07275
    R3        2.06844   0.00136   0.00000   0.00394   0.00394   2.07237
    R4        2.06844   0.00136   0.00000   0.00394   0.00394   2.07237
    R5        2.88601   0.00537   0.00000   0.01793   0.01793   2.90393
    R6        2.07149   0.00174   0.00000   0.00505   0.00505   2.07654
    R7        2.07147   0.00174   0.00000   0.00506   0.00506   2.07654
    R8        2.87229   0.01003   0.00000   0.03277   0.03277   2.90506
    R9        2.07147   0.00174   0.00000   0.00507   0.00507   2.07654
   R10        2.07147   0.00174   0.00000   0.00507   0.00507   2.07654
   R11        2.06842   0.00137   0.00000   0.00396   0.00396   2.07237
   R12        2.06836   0.00152   0.00000   0.00439   0.00439   2.07275
   R13        2.06844   0.00136   0.00000   0.00394   0.00394   2.07237
    A1        1.92476   0.00410   0.00000   0.02824   0.02810   1.95286
    A2        1.93647   0.00071   0.00000   0.00286   0.00280   1.93927
    A3        1.93647   0.00071   0.00000   0.00287   0.00280   1.93927
    A4        1.88702  -0.00217   0.00000  -0.01050  -0.01063   1.87639
    A5        1.88701  -0.00217   0.00000  -0.01050  -0.01063   1.87639
    A6        1.89053  -0.00142   0.00000  -0.01435  -0.01434   1.87618
    A7        1.94337   0.00776   0.00000   0.04156   0.04143   1.98480
    A8        1.90610  -0.00131   0.00000   0.00419   0.00431   1.91041
    A9        1.90611  -0.00131   0.00000   0.00419   0.00430   1.91041
   A10        1.91783  -0.00297   0.00000  -0.01660  -0.01704   1.90079
   A11        1.91784  -0.00297   0.00000  -0.01660  -0.01705   1.90079
   A12        1.87110   0.00053   0.00000  -0.01885  -0.01918   1.85192
   A13        1.94336   0.00777   0.00000   0.04156   0.04143   1.98480
   A14        1.91783  -0.00297   0.00000  -0.01659  -0.01704   1.90079
   A15        1.91783  -0.00297   0.00000  -0.01660  -0.01704   1.90079
   A16        1.90611  -0.00131   0.00000   0.00419   0.00430   1.91041
   A17        1.90611  -0.00131   0.00000   0.00418   0.00430   1.91041
   A18        1.87111   0.00053   0.00000  -0.01886  -0.01918   1.85193
   A19        1.93648   0.00071   0.00000   0.00286   0.00280   1.93927
   A20        1.92475   0.00410   0.00000   0.02824   0.02811   1.95286
   A21        1.93647   0.00071   0.00000   0.00286   0.00280   1.93927
   A22        1.88702  -0.00217   0.00000  -0.01050  -0.01063   1.87639
   A23        1.89052  -0.00142   0.00000  -0.01435  -0.01434   1.87618
   A24        1.88701  -0.00217   0.00000  -0.01050  -0.01063   1.87639
    D1       -3.14159   0.00000   0.00000   0.00000   0.00000  -3.14159
    D2        1.02056  -0.00043   0.00000  -0.00895  -0.00909   1.01147
    D3       -1.02054   0.00043   0.00000   0.00894   0.00908  -1.01146
    D4        1.05125  -0.00042   0.00000  -0.00714  -0.00718   1.04407
    D5       -1.06979  -0.00085   0.00000  -0.01609  -0.01627  -1.08606
    D6       -3.11089   0.00001   0.00000   0.00180   0.00190  -3.10899
    D7       -1.05125   0.00042   0.00000   0.00715   0.00718  -1.04406
    D8        3.11090  -0.00001   0.00000  -0.00180  -0.00191   3.10900
    D9        1.06980   0.00085   0.00000   0.01609   0.01626   1.08606
   D10       -3.14159   0.00000   0.00000   0.00000   0.00000   3.14159
   D11        1.02740  -0.00146   0.00000  -0.02145  -0.02125   1.00615
   D12       -1.02739   0.00146   0.00000   0.02144   0.02124  -1.00615
   D13       -1.02740   0.00146   0.00000   0.02144   0.02124  -1.00615
   D14       -3.14159   0.00000   0.00000   0.00000   0.00000  -3.14159
   D15        1.08680   0.00291   0.00000   0.04289   0.04248   1.12929
   D16        1.02739  -0.00146   0.00000  -0.02144  -0.02124   1.00615
   D17       -1.08681  -0.00291   0.00000  -0.04288  -0.04248  -1.12929
   D18        3.14159   0.00000   0.00000   0.00000   0.00000   3.14159
   D19       -1.05125   0.00042   0.00000   0.00715   0.00718  -1.04407
   D20        3.14159   0.00000   0.00000   0.00000   0.00000   3.14159
   D21        1.05125  -0.00042   0.00000  -0.00715  -0.00718   1.04407
   D22        1.06978   0.00085   0.00000   0.01610   0.01628   1.08606
   D23       -1.02057   0.00043   0.00000   0.00896   0.00909  -1.01147
   D24       -3.11091   0.00001   0.00000   0.00181   0.00191  -3.10900
   D25        3.11090  -0.00001   0.00000  -0.00181  -0.00191   3.10899
   D26        1.02056  -0.00043   0.00000  -0.00895  -0.00909   1.01147
   D27       -1.06978  -0.00085   0.00000  -0.01610  -0.01627  -1.08606
         Item               Value     Threshold  Converged?
 Maximum Force            0.010034     0.000450     NO 
 RMS     Force            0.002811     0.000300     NO 
 Maximum Displacement     0.096034     0.001800     NO 
 RMS     Displacement     0.034881     0.001200     NO 
 Predicted change in Energy=-1.243620D-03
 GradGradGradGradGradGradGradGradGradGradGradGradGradGradGradGradGradGrad

                          Input orientation:                          
 ---------------------------------------------------------------------
 Center     Atomic      Atomic             Coordinates (Angstroms)
 Number     Number       Type             X           Y           Z
 ---------------------------------------------------------------------
      1          6           0        1.005267    0.001383   -0.086185
      2          6           0        2.542098   -0.033659   -0.072288
      3          6           0        3.125592   -1.355143    0.451780
      4          6           0        4.662423   -1.390185    0.465676
      5          1           0        0.621402    0.956503   -0.464964
      6          1           0        0.597765   -0.141518    0.921867
      7          1           0        0.597765   -0.793561   -0.722310
      8          1           0        2.921523    0.792638    0.544767
      9          1           0        2.921523    0.145149   -1.087940
     10          1           0        2.746168   -2.181440   -0.165276
     11          1           0        2.746168   -1.533949    1.467432
     12          1           0        5.069924   -1.247282   -0.542376
     13          1           0        5.046289   -2.345305    0.844455
     14          1           0        5.069923   -0.595241    1.101802
 ---------------------------------------------------------------------
                    Distance matrix (angstroms):
                    1          2          3          4          5
     1  C    0.000000
     2  C    1.537294   0.000000
     3  C    2.573976   1.536695   0.000000
     4  C    3.951685   2.573975   1.537294   0.000000
     5  H    1.096849   2.196290   3.529178   4.764755   0.000000
     6  H    1.096653   2.186414   2.843198   4.276532   1.769042
     7  H    1.096654   2.186415   2.843197   4.276531   1.769042
     8  H    2.167077   1.098857   2.159458   2.793154   2.517333
     9  H    2.167077   1.098857   2.159458   2.793154   2.517330
    10  H    2.793154   2.159457   1.098857   2.167076   3.801464
    11  H    2.793154   2.159456   1.098856   2.167077   3.801465
    12  H    4.276531   2.843197   2.186415   1.096653   4.965079
    13  H    4.764756   3.529178   2.196290   1.096850   5.674164
    14  H    4.276530   2.843195   2.186414   1.096653   4.965079
                    6          7          8          9         10
     6  H    0.000000
     7  H    1.768751   0.000000
     8  H    2.532726   3.085671   0.000000
     9  H    3.085669   2.532729   1.756410   0.000000
    10  H    3.155756   2.617657   3.062687   2.508999   0.000000
    11  H    2.617659   3.155753   2.508998   3.062686   1.756412
    12  H    4.833935   4.498716   3.155754   2.617658   2.532726
    13  H    4.965081   4.965080   3.801464   3.801465   2.517333
    14  H    4.498715   4.833933   2.617656   3.155752   3.085669
                   11         12         13         14
    11  H    0.000000
    12  H    3.085669   0.000000
    13  H    2.517331   1.769043   0.000000
    14  H    2.532725   1.768751   1.769042   0.000000
 Stoichiometry    C4H10
 Framework group  C1[X(C4H10)]
 Deg. of freedom    36
 Full point group                 C1      NOp   1
 Largest Abelian subgroup         C1      NOp   1
 Largest concise Abelian subgroup C1      NOp   1
                         Standard orientation:                         
 ---------------------------------------------------------------------
 Center     Atomic      Atomic             Coordinates (Angstroms)
 Number     Number       Type             X           Y           Z
 ---------------------------------------------------------------------
      1          6           0       -1.972184   -0.120185    0.000000
      2          6           0       -0.571566    0.513488    0.000000
      3          6           0        0.571566   -0.513489    0.000000
      4          6           0        1.972184    0.120185    0.000000
      5          1           0       -2.764293    0.638526   -0.000003
      6          1           0       -2.120082   -0.751574    0.884376
      7          1           0       -2.120081   -0.751578   -0.884374
      8          1           0       -0.464672    1.165267    0.878206
      9          1           0       -0.464672    1.165268   -0.878204
     10          1           0        0.464672   -1.165267   -0.878206
     11          1           0        0.464672   -1.165266    0.878206
     12          1           0        2.120081    0.751575   -0.884376
     13          1           0        2.764294   -0.638525    0.000002
     14          1           0        2.120080    0.751577    0.884375
 ---------------------------------------------------------------------
 Rotational constants (GHZ):     23.4995198      3.5628494      3.3506834
 Standard basis: 6-31G(d) (6D, 7F)
 There are    80 symmetry adapted cartesian basis functions of A   symmetry.
 There are    80 symmetry adapted basis functions of A   symmetry.
    80 basis functions,   152 primitive gaussians,    80 cartesian basis functions
    17 alpha electrons       17 beta electrons
       nuclear repulsion energy       129.8272404470 Hartrees.
 NAtoms=   14 NActive=   14 NUniq=   14 SFac= 1.00D+00 NAtFMM=   60 NAOKFM=F Big=F
 Integral buffers will be    131072 words long.
 Raffenetti 2 integral format.
 Two-electron integral symmetry is turned on.
 One-electron integrals computed using PRISM.
 NBasis=    80 RedAO= T EigKep=  4.83D-03  NBF=    80
 NBsUse=    80 1.00D-06 EigRej= -1.00D+00 NBFU=    80
 Initial guess from the checkpoint file:  "/home/mateus/github/db_singletoxygen/chk/molecule_1.chk"
 B after Tr=     0.000000    0.000000    0.000000
         Rot=    1.000000    0.000000    0.000000    0.000379 Ang=  -0.04 deg.
 ExpMin= 1.61D-01 ExpMax= 3.05D+03 ExpMxC= 4.57D+02 IAcc=1 IRadAn=         1 AccDes= 0.00D+00
 Harris functional with IExCor=  402 and IRadAn=       1 diagonalized for initial guess.
 HarFok:  IExCor=  402 AccDes= 0.00D+00 IRadAn=         1 IDoV= 1 UseB2=F ITyADJ=14
 ICtDFT=  3500011 ScaDFX=  1.000000  1.000000  1.000000  1.000000
 FoFCou: FMM=F IPFlag=           0 FMFlag=      100000 FMFlg1=           0
         NFxFlg=           0 DoJE=T BraDBF=F KetDBF=T FulRan=T
         wScrn=  0.000000 ICntrl=     500 IOpCl=  0 I1Cent=   200000004 NGrid=           0
         NMat0=    1 NMatS0=      1 NMatT0=    0 NMatD0=    1 NMtDS0=    0 NMtDT0=    0
 Petite list used in FoFCou.
 Keep R1 ints in memory in canonical form, NReq=6192044.
 Requested convergence on RMS density matrix=1.00D-08 within 128 cycles.
 Requested convergence on MAX density matrix=1.00D-06.
 Requested convergence on             energy=1.00D-06.
 No special actions if energy rises.
 Integral accuracy reduced to 1.0D-05 until final iterations.
 Initial convergence to 1.0D-05 achieved.  Increase integral accuracy.
 SCF Done:  E(RB3LYP) =  -158.457961856     A.U. after   10 cycles
            NFock= 10  Conv=0.19D-08     -V/T= 2.0107
 Calling FoFJK, ICntrl=      2127 FMM=F ISym2X=0 I1Cent= 0 IOpClX= 0 NMat=1 NMatS=1 NMatT=0.
 ***** Axes restored to original set *****
 -------------------------------------------------------------------
 Center     Atomic                   Forces (Hartrees/Bohr)
 Number     Number              X              Y              Z
 -------------------------------------------------------------------
      1        6           0.002193226   -0.000729125    0.000288976
      2        6          -0.000358649   -0.000172935    0.000068969
      3        6           0.000358900    0.000173577   -0.000069201
      4        6          -0.002193264    0.000728964   -0.000288578
      5        1           0.001159517   -0.000206058    0.000081781
      6        1          -0.000040373   -0.000190537    0.000287651
      7        1          -0.000040231   -0.000335798   -0.000078770
      8        1          -0.000064102    0.000619784   -0.000041935
      9        1          -0.000063937    0.000480058   -0.000394619
     10        1           0.000063855   -0.000620155    0.000041981
     11        1           0.000063835   -0.000480391    0.000394661
     12        1           0.000040414    0.000190543   -0.000287730
     13        1          -0.001159588    0.000206196   -0.000081914
     14        1           0.000040398    0.000335878    0.000078728
 -------------------------------------------------------------------
 Cartesian Forces:  Max     0.002193264 RMS     0.000617385

 GradGradGradGradGradGradGradGradGradGradGradGradGradGradGradGradGradGrad
 Berny optimization.
 Using GEDIIS/GDIIS optimizer.
 FormGI is forming the generalized inverse of G from B-inverse, IUseBI=4.
 GSVD:  received Info=                   1 from GESDD.
 Internal  Forces:  Max     0.003318708 RMS     0.000848494
 Search for a local minimum.
 Step number   2 out of a maximum of   74
 All quantities printed in internal units (Hartrees-Bohrs-Radians)
 Mixed Optimization -- En-DIIS/RFO-DIIS
 Update second derivatives using D2CorX and points    1    2
 DE= -8.95D-04 DEPred=-1.24D-03 R= 7.20D-01
 TightC=F SS=  1.41D+00  RLast= 1.33D-01 DXNew= 5.0454D-01 3.9773D-01
 Trust test= 7.20D-01 RLast= 1.33D-01 DXMaxT set to 3.98D-01
 ITU=  1  0
 Use linear search instead of GDIIS.
     Eigenvalues ---    0.00406   0.00502   0.00502   0.03492   0.03492
     Eigenvalues ---    0.04839   0.04867   0.05502   0.05502   0.05591
     Eigenvalues ---    0.05612   0.08569   0.08621   0.12365   0.12365
     Eigenvalues ---    0.15919   0.16000   0.16000   0.16000   0.16000
     Eigenvalues ---    0.16554   0.21915   0.23339   0.29743   0.30371
     Eigenvalues ---    0.33431   0.34070   0.34108   0.34109   0.34109
     Eigenvalues ---    0.34240   0.34290   0.34290   0.34291   0.34295
     Eigenvalues ---    0.35829
 RFO step:  Lambda=-2.28470066D-05 EMin= 4.06031642D-03
 Quartic linear search produced a step of -0.20819.
 Iteration  1 RMS(Cart)=  0.00735721 RMS(Int)=  0.00003184
 Iteration  2 RMS(Cart)=  0.00001134 RMS(Int)=  0.00003069
 Iteration  3 RMS(Cart)=  0.00000000 RMS(Int)=  0.00003069
 Variable       Old X    -DE/DX   Delta X   Delta X   Delta X     New X
                                 (Linear)    (Quad)   (Total)
    R1        2.90506  -0.00332  -0.00682  -0.00163  -0.00845   2.89661
    R2        2.07275  -0.00061  -0.00091  -0.00046  -0.00138   2.07137
    R3        2.07237   0.00030  -0.00082   0.00154   0.00072   2.07309
    R4        2.07237   0.00030  -0.00082   0.00154   0.00072   2.07309
    R5        2.90393  -0.00157  -0.00373  -0.00035  -0.00408   2.89985
    R6        2.07654   0.00042  -0.00105   0.00206   0.00101   2.07755
    R7        2.07654   0.00042  -0.00105   0.00207   0.00101   2.07755
    R8        2.90506  -0.00332  -0.00682  -0.00163  -0.00845   2.89661
    R9        2.07654   0.00042  -0.00105   0.00207   0.00101   2.07755
   R10        2.07654   0.00042  -0.00105   0.00207   0.00101   2.07755
   R11        2.07237   0.00030  -0.00082   0.00154   0.00072   2.07309
   R12        2.07275  -0.00061  -0.00091  -0.00046  -0.00138   2.07137
   R13        2.07237   0.00030  -0.00082   0.00154   0.00072   2.07309
    A1        1.95286  -0.00144  -0.00585  -0.00171  -0.00754   1.94532
    A2        1.93927   0.00015  -0.00058   0.00160   0.00103   1.94030
    A3        1.93927   0.00015  -0.00058   0.00160   0.00103   1.94030
    A4        1.87639   0.00062   0.00221   0.00032   0.00255   1.87894
    A5        1.87639   0.00062   0.00221   0.00032   0.00256   1.87894
    A6        1.87618  -0.00003   0.00299  -0.00223   0.00075   1.87693
    A7        1.98480  -0.00210  -0.00863   0.00079  -0.00780   1.97700
    A8        1.91041   0.00042  -0.00090   0.00067  -0.00024   1.91017
    A9        1.91041   0.00042  -0.00090   0.00067  -0.00024   1.91017
   A10        1.90079   0.00091   0.00355   0.00095   0.00458   1.90537
   A11        1.90079   0.00091   0.00355   0.00095   0.00458   1.90537
   A12        1.85192  -0.00045   0.00399  -0.00440  -0.00036   1.85156
   A13        1.98480  -0.00210  -0.00863   0.00079  -0.00780   1.97700
   A14        1.90079   0.00091   0.00355   0.00095   0.00458   1.90537
   A15        1.90079   0.00091   0.00355   0.00095   0.00458   1.90537
   A16        1.91041   0.00042  -0.00089   0.00067  -0.00024   1.91017
   A17        1.91041   0.00042  -0.00089   0.00067  -0.00024   1.91017
   A18        1.85193  -0.00045   0.00399  -0.00441  -0.00036   1.85156
   A19        1.93927   0.00015  -0.00058   0.00160   0.00103   1.94030
   A20        1.95286  -0.00144  -0.00585  -0.00171  -0.00754   1.94532
   A21        1.93927   0.00015  -0.00058   0.00160   0.00103   1.94030
   A22        1.87639   0.00062   0.00221   0.00032   0.00255   1.87894
   A23        1.87618  -0.00003   0.00299  -0.00223   0.00075   1.87693
   A24        1.87639   0.00062   0.00221   0.00032   0.00256   1.87894
    D1       -3.14159   0.00000   0.00000   0.00000   0.00000  -3.14159
    D2        1.01147  -0.00003   0.00189  -0.00227  -0.00035   1.01112
    D3       -1.01146   0.00003  -0.00189   0.00227   0.00035  -1.01111
    D4        1.04407   0.00008   0.00149  -0.00035   0.00116   1.04523
    D5       -1.08606   0.00005   0.00339  -0.00262   0.00080  -1.08525
    D6       -3.10899   0.00011  -0.00040   0.00192   0.00151  -3.10748
    D7       -1.04406  -0.00008  -0.00150   0.00035  -0.00116  -1.04522
    D8        3.10900  -0.00011   0.00040  -0.00193  -0.00151   3.10748
    D9        1.08606  -0.00005  -0.00339   0.00261  -0.00081   1.08526
   D10        3.14159   0.00000   0.00000   0.00000   0.00000  -3.14159
   D11        1.00615   0.00023   0.00442  -0.00210   0.00229   1.00844
   D12       -1.00615  -0.00023  -0.00442   0.00210  -0.00229  -1.00844
   D13       -1.00615  -0.00023  -0.00442   0.00210  -0.00229  -1.00844
   D14       -3.14159   0.00000   0.00000   0.00000   0.00000  -3.14159
   D15        1.12929  -0.00045  -0.00884   0.00420  -0.00457   1.12471
   D16        1.00615   0.00023   0.00442  -0.00210   0.00229   1.00844
   D17       -1.12929   0.00045   0.00884  -0.00420   0.00458  -1.12471
   D18        3.14159   0.00000   0.00000   0.00000   0.00000   3.14159
   D19       -1.04407  -0.00008  -0.00150   0.00034  -0.00116  -1.04522
   D20        3.14159   0.00000   0.00000   0.00000   0.00000   3.14159
   D21        1.04407   0.00008   0.00150  -0.00035   0.00116   1.04522
   D22        1.08606  -0.00005  -0.00339   0.00262  -0.00080   1.08525
   D23       -1.01147   0.00003  -0.00189   0.00227   0.00036  -1.01112
   D24       -3.10900   0.00011  -0.00040   0.00193   0.00151  -3.10748
   D25        3.10899  -0.00011   0.00040  -0.00193  -0.00151   3.10748
   D26        1.01147  -0.00003   0.00189  -0.00227  -0.00035   1.01111
   D27       -1.08606   0.00005   0.00339  -0.00262   0.00080  -1.08525
         Item               Value     Threshold  Converged?
 Maximum Force            0.003319     0.000450     NO 
 RMS     Force            0.000848     0.000300     NO 
 Maximum Displacement     0.023942     0.001800     NO 
 RMS     Displacement     0.007365     0.001200     NO 
 Predicted change in Energy=-7.431540D-05
 GradGradGradGradGradGradGradGradGradGradGradGradGradGradGradGradGradGrad

                          Input orientation:                          
 ---------------------------------------------------------------------
 Center     Atomic      Atomic             Coordinates (Angstroms)
 Number     Number       Type             X           Y           Z
 ---------------------------------------------------------------------
      1          6           0        1.013272   -0.003043   -0.084430
      2          6           0        2.545747   -0.033360   -0.072406
      3          6           0        3.121943   -1.355442    0.451898
      4          6           0        4.654418   -1.385759    0.463921
      5          1           0        0.634071    0.952964   -0.463560
      6          1           0        0.606245   -0.145970    0.924225
      7          1           0        0.606245   -0.798418   -0.720976
      8          1           0        2.923354    0.794775    0.544252
      9          1           0        2.923355    0.147058   -1.089030
     10          1           0        2.744336   -2.183577   -0.164761
     11          1           0        2.744336   -1.535858    1.468522
     12          1           0        5.061445   -1.242831   -0.544733
     13          1           0        5.033619   -2.341765    0.843051
     14          1           0        5.061444   -0.590384    1.100468
 ---------------------------------------------------------------------
                    Distance matrix (angstroms):
                    1          2          3          4          5
     1  C    0.000000
     2  C    1.532822   0.000000
     3  C    2.561860   1.534535   0.000000
     4  C    3.933261   2.561860   1.532822   0.000000
     5  H    1.096121   2.186399   3.515154   4.742682   0.000000
     6  H    1.097034   2.183488   2.831016   4.258716   1.770417
     7  H    1.097034   2.183488   2.831015   4.258715   1.770417
     8  H    2.163370   1.099392   2.161342   2.785277   2.506297
     9  H    2.163370   1.099392   2.161342   2.785277   2.506296
    10  H    2.785277   2.161342   1.099392   2.163370   3.792148
    11  H    2.785277   2.161342   1.099392   2.163370   3.792149
    12  H    4.258716   2.831016   2.183488   1.097034   4.942645
    13  H    4.742683   3.515154   2.186399   1.096121   5.649646
    14  H    4.258715   2.831015   2.183488   1.097034   4.942645
                    6          7          8          9         10
     6  H    0.000000
     7  H    1.769851   0.000000
     8  H    2.529501   3.083514   0.000000
     9  H    3.083514   2.529503   1.757028   0.000000
    10  H    3.147882   2.607580   3.066811   2.513599   0.000000
    11  H    2.607581   3.147880   2.513598   3.066811   1.757029
    12  H    4.817650   4.480778   3.147882   2.607581   2.529501
    13  H    4.942646   4.942645   3.792148   3.792149   2.506297
    14  H    4.480777   4.817648   2.607580   3.147880   3.083514
                   11         12         13         14
    11  H    0.000000
    12  H    3.083514   0.000000
    13  H    2.506296   1.770417   0.000000
    14  H    2.529502   1.769852   1.770416   0.000000
 Stoichiometry    C4H10
 Framework group  C1[X(C4H10)]
 Deg. of freedom    36
 Full point group                 C1      NOp   1
 Largest Abelian subgroup         C1      NOp   1
 Largest concise Abelian subgroup C1      NOp   1
                         Standard orientation:                         
 ---------------------------------------------------------------------
 Center     Atomic      Atomic             Coordinates (Angstroms)
 Number     Number       Type             X           Y           Z
 ---------------------------------------------------------------------
      1          6           0       -1.962893   -0.121180    0.000000
      2          6           0       -0.568467    0.515309    0.000000
      3          6           0        0.568467   -0.515310    0.000000
      4          6           0        1.962893    0.121180    0.000000
      5          1           0       -2.751288    0.640341   -0.000002
      6          1           0       -2.110198   -0.752599    0.884927
      7          1           0       -2.110197   -0.752601   -0.884925
      8          1           0       -0.464078    1.167980    0.878514
      9          1           0       -0.464078    1.167980   -0.878514
     10          1           0        0.464078   -1.167979   -0.878515
     11          1           0        0.464078   -1.167979    0.878514
     12          1           0        2.110198    0.752599   -0.884926
     13          1           0        2.751288   -0.640341    0.000001
     14          1           0        2.110197    0.752601    0.884925
 ---------------------------------------------------------------------
 Rotational constants (GHZ):     23.3979215      3.5950764      3.3773385
 Standard basis: 6-31G(d) (6D, 7F)
 There are    80 symmetry adapted cartesian basis functions of A   symmetry.
 There are    80 symmetry adapted basis functions of A   symmetry.
    80 basis functions,   152 primitive gaussians,    80 cartesian basis functions
    17 alpha electrons       17 beta electrons
       nuclear repulsion energy       130.1001436426 Hartrees.
 NAtoms=   14 NActive=   14 NUniq=   14 SFac= 1.00D+00 NAtFMM=   60 NAOKFM=F Big=F
 Integral buffers will be    131072 words long.
 Raffenetti 2 integral format.
 Two-electron integral symmetry is turned on.
 One-electron integrals computed using PRISM.
 NBasis=    80 RedAO= T EigKep=  4.75D-03  NBF=    80
 NBsUse=    80 1.00D-06 EigRej= -1.00D+00 NBFU=    80
 Initial guess from the checkpoint file:  "/home/mateus/github/db_singletoxygen/chk/molecule_1.chk"
 B after Tr=     0.000000    0.000000    0.000000
         Rot=    1.000000    0.000000    0.000000   -0.000048 Ang=  -0.01 deg.
 ExpMin= 1.61D-01 ExpMax= 3.05D+03 ExpMxC= 4.57D+02 IAcc=1 IRadAn=         1 AccDes= 0.00D+00
 Harris functional with IExCor=  402 and IRadAn=       1 diagonalized for initial guess.
 HarFok:  IExCor=  402 AccDes= 0.00D+00 IRadAn=         1 IDoV= 1 UseB2=F ITyADJ=14
 ICtDFT=  3500011 ScaDFX=  1.000000  1.000000  1.000000  1.000000
 FoFCou: FMM=F IPFlag=           0 FMFlag=      100000 FMFlg1=           0
         NFxFlg=           0 DoJE=T BraDBF=F KetDBF=T FulRan=T
         wScrn=  0.000000 ICntrl=     500 IOpCl=  0 I1Cent=   200000004 NGrid=           0
         NMat0=    1 NMatS0=      1 NMatT0=    0 NMatD0=    1 NMtDS0=    0 NMtDT0=    0
 Petite list used in FoFCou.
 Keep R1 ints in memory in canonical form, NReq=6192044.
 Requested convergence on RMS density matrix=1.00D-08 within 128 cycles.
 Requested convergence on MAX density matrix=1.00D-06.
 Requested convergence on             energy=1.00D-06.
 No special actions if energy rises.
 Integral accuracy reduced to 1.0D-05 until final iterations.
 Initial convergence to 1.0D-05 achieved.  Increase integral accuracy.
 SCF Done:  E(RB3LYP) =  -158.458040620     A.U. after    9 cycles
            NFock=  9  Conv=0.16D-08     -V/T= 2.0106
 Calling FoFJK, ICntrl=      2127 FMM=F ISym2X=0 I1Cent= 0 IOpClX= 0 NMat=1 NMatS=1 NMatT=0.
 ***** Axes restored to original set *****
 -------------------------------------------------------------------
 Center     Atomic                   Forces (Hartrees/Bohr)
 Number     Number              X              Y              Z
 -------------------------------------------------------------------
      1        6           0.000430041    0.000133380   -0.000052961
      2        6          -0.000583223   -0.000502462    0.000199360
      3        6           0.000583332    0.000502712   -0.000199431
      4        6          -0.000430097   -0.000133450    0.000053056
      5        1          -0.000000497   -0.000027822    0.000011060
      6        1          -0.000038280   -0.000062402    0.000001125
      7        1          -0.000038245   -0.000046185    0.000041975
      8        1           0.000106278    0.000078267   -0.000050253
      9        1           0.000106305    0.000091426   -0.000017140
     10        1          -0.000106314   -0.000078384    0.000050279
     11        1          -0.000106345   -0.000091547    0.000017174
     12        1           0.000038299    0.000062410   -0.000001136
     13        1           0.000000476    0.000027851   -0.000011098
     14        1           0.000038271    0.000046206   -0.000042009
 -------------------------------------------------------------------
 Cartesian Forces:  Max     0.000583332 RMS     0.000205830

 GradGradGradGradGradGradGradGradGradGradGradGradGradGradGradGradGradGrad
 Berny optimization.
 Using GEDIIS/GDIIS optimizer.
 FormGI is forming the generalized inverse of G from B-inverse, IUseBI=4.
 Internal  Forces:  Max     0.000362315 RMS     0.000083770
 Search for a local minimum.
 Step number   3 out of a maximum of   74
 All quantities printed in internal units (Hartrees-Bohrs-Radians)
 Mixed Optimization -- En-DIIS/RFO-DIIS
 Swapping is turned off.
 Update second derivatives using D2CorX and points    1    2    3
 DE= -7.88D-05 DEPred=-7.43D-05 R= 1.06D+00
 TightC=F SS=  1.41D+00  RLast= 2.45D-02 DXNew= 6.6890D-01 7.3548D-02
 Trust test= 1.06D+00 RLast= 2.45D-02 DXMaxT set to 3.98D-01
 ITU=  1  1  0
     Eigenvalues ---    0.00406   0.00502   0.00502   0.03529   0.03529
     Eigenvalues ---    0.04832   0.04874   0.05547   0.05547   0.05585
     Eigenvalues ---    0.05622   0.08499   0.08612   0.12314   0.12314
     Eigenvalues ---    0.15862   0.16000   0.16000   0.16000   0.16000
     Eigenvalues ---    0.16625   0.21903   0.24119   0.29562   0.30371
     Eigenvalues ---    0.31786   0.33580   0.34108   0.34109   0.34109
     Eigenvalues ---    0.34249   0.34290   0.34290   0.34291   0.34295
     Eigenvalues ---    0.34505
 En-DIIS/RFO-DIIS IScMMF=        0 using points:     3    2
 RFO step:  Lambda=-9.84647672D-07.
 DidBck=F Rises=F RFO-DIIS coefs:    1.03226   -0.03226
 Iteration  1 RMS(Cart)=  0.00045038 RMS(Int)=  0.00000035
 Iteration  2 RMS(Cart)=  0.00000032 RMS(Int)=  0.00000029
 Variable       Old X    -DE/DX   Delta X   Delta X   Delta X     New X
                                 (Linear)    (Quad)   (Total)
    R1        2.89661  -0.00036  -0.00027  -0.00100  -0.00127   2.89534
    R2        2.07137  -0.00002  -0.00004  -0.00003  -0.00008   2.07129
    R3        2.07309   0.00002   0.00002   0.00006   0.00008   2.07317
    R4        2.07309   0.00002   0.00002   0.00006   0.00008   2.07317
    R5        2.89985  -0.00031  -0.00013  -0.00096  -0.00110   2.89875
    R6        2.07755   0.00007   0.00003   0.00020   0.00024   2.07779
    R7        2.07755   0.00007   0.00003   0.00021   0.00024   2.07779
    R8        2.89661  -0.00036  -0.00027  -0.00100  -0.00127   2.89534
    R9        2.07755   0.00007   0.00003   0.00021   0.00024   2.07779
   R10        2.07755   0.00007   0.00003   0.00021   0.00024   2.07779
   R11        2.07309   0.00002   0.00002   0.00006   0.00008   2.07317
   R12        2.07137  -0.00002  -0.00004  -0.00003  -0.00008   2.07129
   R13        2.07309   0.00002   0.00002   0.00006   0.00008   2.07317
    A1        1.94532   0.00000  -0.00024   0.00039   0.00014   1.94547
    A2        1.94030   0.00003   0.00003   0.00011   0.00014   1.94044
    A3        1.94030   0.00003   0.00003   0.00011   0.00014   1.94044
    A4        1.87894   0.00000   0.00008   0.00006   0.00014   1.87908
    A5        1.87894   0.00000   0.00008   0.00006   0.00014   1.87908
    A6        1.87693  -0.00006   0.00002  -0.00076  -0.00073   1.87620
    A7        1.97700   0.00006  -0.00025   0.00086   0.00061   1.97761
    A8        1.91017   0.00002  -0.00001   0.00045   0.00044   1.91061
    A9        1.91017   0.00002  -0.00001   0.00045   0.00044   1.91061
   A10        1.90537  -0.00003   0.00015  -0.00026  -0.00012   1.90525
   A11        1.90537  -0.00003   0.00015  -0.00026  -0.00012   1.90525
   A12        1.85156  -0.00006  -0.00001  -0.00139  -0.00141   1.85016
   A13        1.97700   0.00006  -0.00025   0.00086   0.00061   1.97761
   A14        1.90537  -0.00003   0.00015  -0.00026  -0.00012   1.90525
   A15        1.90537  -0.00003   0.00015  -0.00026  -0.00012   1.90525
   A16        1.91017   0.00002  -0.00001   0.00045   0.00044   1.91061
   A17        1.91017   0.00002  -0.00001   0.00045   0.00044   1.91061
   A18        1.85156  -0.00006  -0.00001  -0.00139  -0.00141   1.85016
   A19        1.94030   0.00003   0.00003   0.00011   0.00014   1.94044
   A20        1.94532   0.00000  -0.00024   0.00039   0.00014   1.94547
   A21        1.94030   0.00003   0.00003   0.00011   0.00014   1.94044
   A22        1.87894   0.00000   0.00008   0.00006   0.00014   1.87908
   A23        1.87693  -0.00006   0.00002  -0.00076  -0.00073   1.87620
   A24        1.87894   0.00000   0.00008   0.00006   0.00014   1.87908
    D1       -3.14159   0.00000   0.00000   0.00000   0.00000  -3.14159
    D2        1.01112  -0.00002  -0.00001  -0.00058  -0.00060   1.01052
    D3       -1.01111   0.00002   0.00001   0.00058   0.00059  -1.01052
    D4        1.04523  -0.00002   0.00004  -0.00041  -0.00037   1.04486
    D5       -1.08525  -0.00004   0.00003  -0.00099  -0.00096  -1.08622
    D6       -3.10748   0.00000   0.00005   0.00017   0.00022  -3.10726
    D7       -1.04522   0.00002  -0.00004   0.00041   0.00037  -1.04485
    D8        3.10748   0.00000  -0.00005  -0.00018  -0.00023   3.10726
    D9        1.08526   0.00004  -0.00003   0.00099   0.00096   1.08622
   D10       -3.14159   0.00000   0.00000   0.00000   0.00000  -3.14159
   D11        1.00844  -0.00005   0.00007  -0.00098  -0.00090   1.00754
   D12       -1.00844   0.00005  -0.00007   0.00098   0.00090  -1.00754
   D13       -1.00844   0.00005  -0.00007   0.00098   0.00090  -1.00754
   D14       -3.14159   0.00000   0.00000   0.00000   0.00000  -3.14159
   D15        1.12471   0.00010  -0.00015   0.00196   0.00181   1.12652
   D16        1.00844  -0.00005   0.00007  -0.00098  -0.00090   1.00754
   D17       -1.12471  -0.00010   0.00015  -0.00195  -0.00181  -1.12652
   D18        3.14159   0.00000   0.00000   0.00000   0.00000   3.14159
   D19       -1.04522   0.00002  -0.00004   0.00041   0.00037  -1.04486
   D20        3.14159   0.00000   0.00000   0.00000   0.00000   3.14159
   D21        1.04522  -0.00002   0.00004  -0.00041  -0.00037   1.04485
   D22        1.08525   0.00004  -0.00003   0.00099   0.00096   1.08622
   D23       -1.01112   0.00002   0.00001   0.00058   0.00060  -1.01052
   D24       -3.10748   0.00000   0.00005   0.00018   0.00023  -3.10726
   D25        3.10748   0.00000  -0.00005  -0.00018  -0.00023   3.10726
   D26        1.01111  -0.00002  -0.00001  -0.00058  -0.00059   1.01052
   D27       -1.08525  -0.00004   0.00003  -0.00099  -0.00096  -1.08622
         Item               Value     Threshold  Converged?
 Maximum Force            0.000362     0.000450     YES
 RMS     Force            0.000084     0.000300     YES
 Maximum Displacement     0.001017     0.001800     YES
 RMS     Displacement     0.000451     0.001200     YES
 Predicted change in Energy=-1.250083D-06
 Optimization completed.
    -- Stationary point found.
                           ----------------------------
                           !   Optimized Parameters   !
                           ! (Angstroms and Degrees)  !
 --------------------------                            --------------------------
 ! Name  Definition              Value          Derivative Info.                !
 --------------------------------------------------------------------------------
 ! R1    R(1,2)                  1.5328         -DE/DX =   -0.0004              !
 ! R2    R(1,5)                  1.0961         -DE/DX =    0.0                 !
 ! R3    R(1,6)                  1.097          -DE/DX =    0.0                 !
 ! R4    R(1,7)                  1.097          -DE/DX =    0.0                 !
 ! R5    R(2,3)                  1.5345         -DE/DX =   -0.0003              !
 ! R6    R(2,8)                  1.0994         -DE/DX =    0.0001              !
 ! R7    R(2,9)                  1.0994         -DE/DX =    0.0001              !
 ! R8    R(3,4)                  1.5328         -DE/DX =   -0.0004              !
 ! R9    R(3,10)                 1.0994         -DE/DX =    0.0001              !
 ! R10   R(3,11)                 1.0994         -DE/DX =    0.0001              !
 ! R11   R(4,12)                 1.097          -DE/DX =    0.0                 !
 ! R12   R(4,13)                 1.0961         -DE/DX =    0.0                 !
 ! R13   R(4,14)                 1.097          -DE/DX =    0.0                 !
 ! A1    A(2,1,5)              111.4589         -DE/DX =    0.0                 !
 ! A2    A(2,1,6)              111.1709         -DE/DX =    0.0                 !
 ! A3    A(2,1,7)              111.1709         -DE/DX =    0.0                 !
 ! A4    A(5,1,6)              107.6556         -DE/DX =    0.0                 !
 ! A5    A(5,1,7)              107.6556         -DE/DX =    0.0                 !
 ! A6    A(6,1,7)              107.5404         -DE/DX =   -0.0001              !
 ! A7    A(1,2,3)              113.2736         -DE/DX =    0.0001              !
 ! A8    A(1,2,8)              109.4444         -DE/DX =    0.0                 !
 ! A9    A(1,2,9)              109.4444         -DE/DX =    0.0                 !
 ! A10   A(3,2,8)              109.1696         -DE/DX =    0.0                 !
 ! A11   A(3,2,9)              109.1696         -DE/DX =    0.0                 !
 ! A12   A(8,2,9)              106.0867         -DE/DX =   -0.0001              !
 ! A13   A(2,3,4)              113.2736         -DE/DX =    0.0001              !
 ! A14   A(2,3,10)             109.1696         -DE/DX =    0.0                 !
 ! A15   A(2,3,11)             109.1696         -DE/DX =    0.0                 !
 ! A16   A(4,3,10)             109.4444         -DE/DX =    0.0                 !
 ! A17   A(4,3,11)             109.4444         -DE/DX =    0.0                 !
 ! A18   A(10,3,11)            106.0868         -DE/DX =   -0.0001              !
 ! A19   A(3,4,12)             111.1709         -DE/DX =    0.0                 !
 ! A20   A(3,4,13)             111.4589         -DE/DX =    0.0                 !
 ! A21   A(3,4,14)             111.1709         -DE/DX =    0.0                 !
 ! A22   A(12,4,13)            107.6556         -DE/DX =    0.0                 !
 ! A23   A(12,4,14)            107.5404         -DE/DX =   -0.0001              !
 ! A24   A(13,4,14)            107.6555         -DE/DX =    0.0                 !
 ! D1    D(5,1,2,3)           -179.9999         -DE/DX =    0.0                 !
 ! D2    D(5,1,2,8)             57.9327         -DE/DX =    0.0                 !
 ! D3    D(5,1,2,9)            -57.9325         -DE/DX =    0.0                 !
 ! D4    D(6,1,2,3)             59.887          -DE/DX =    0.0                 !
 ! D5    D(6,1,2,8)            -62.1804         -DE/DX =    0.0                 !
 ! D6    D(6,1,2,9)           -178.0455         -DE/DX =    0.0                 !
 ! D7    D(7,1,2,3)            -59.8868         -DE/DX =    0.0                 !
 ! D8    D(7,1,2,8)            178.0458         -DE/DX =    0.0                 !
 ! D9    D(7,1,2,9)             62.1806         -DE/DX =    0.0                 !
 ! D10   D(1,2,3,4)           -180.0            -DE/DX =    0.0                 !
 ! D11   D(1,2,3,10)            57.7794         -DE/DX =    0.0                 !
 ! D12   D(1,2,3,11)           -57.7794         -DE/DX =    0.0                 !
 ! D13   D(8,2,3,4)            -57.7793         -DE/DX =    0.0                 !
 ! D14   D(8,2,3,10)          -180.0            -DE/DX =    0.0                 !
 ! D15   D(8,2,3,11)            64.4413         -DE/DX =    0.0001              !
 ! D16   D(9,2,3,4)             57.7793         -DE/DX =    0.0                 !
 ! D17   D(9,2,3,10)           -64.4413         -DE/DX =   -0.0001              !
 ! D18   D(9,2,3,11)           180.0            -DE/DX =    0.0                 !
 ! D19   D(2,3,4,12)           -59.887          -DE/DX =    0.0                 !
 ! D20   D(2,3,4,13)           179.9999         -DE/DX =    0.0                 !
 ! D21   D(2,3,4,14)            59.8869         -DE/DX =    0.0                 !
 ! D22   D(10,3,4,12)           62.1804         -DE/DX =    0.0                 !
 ! D23   D(10,3,4,13)          -57.9327         -DE/DX =    0.0                 !
 ! D24   D(10,3,4,14)         -178.0457         -DE/DX =    0.0                 !
 ! D25   D(11,3,4,12)          178.0456         -DE/DX =    0.0                 !
 ! D26   D(11,3,4,13)           57.9325         -DE/DX =    0.0                 !
 ! D27   D(11,3,4,14)          -62.1805         -DE/DX =    0.0                 !
 --------------------------------------------------------------------------------
 GradGradGradGradGradGradGradGradGradGradGradGradGradGradGradGradGradGrad

                          Input orientation:                          
 ---------------------------------------------------------------------
 Center     Atomic      Atomic             Coordinates (Angstroms)
 Number     Number       Type             X           Y           Z
 ---------------------------------------------------------------------
      1          6           0        1.013272   -0.003043   -0.084430
      2          6           0        2.545747   -0.033360   -0.072406
      3          6           0        3.121943   -1.355442    0.451898
      4          6           0        4.654418   -1.385759    0.463921
      5          1           0        0.634071    0.952964   -0.463560
      6          1           0        0.606245   -0.145970    0.924225
      7          1           0        0.606245   -0.798418   -0.720976
      8          1           0        2.923354    0.794775    0.544252
      9          1           0        2.923355    0.147058   -1.089030
     10          1           0        2.744336   -2.183577   -0.164761
     11          1           0        2.744336   -1.535858    1.468522
     12          1           0        5.061445   -1.242831   -0.544733
     13          1           0        5.033619   -2.341765    0.843051
     14          1           0        5.061444   -0.590384    1.100468
 ---------------------------------------------------------------------
                    Distance matrix (angstroms):
                    1          2          3          4          5
     1  C    0.000000
     2  C    1.532822   0.000000
     3  C    2.561860   1.534535   0.000000
     4  C    3.933261   2.561860   1.532822   0.000000
     5  H    1.096121   2.186399   3.515154   4.742682   0.000000
     6  H    1.097034   2.183488   2.831016   4.258716   1.770417
     7  H    1.097034   2.183488   2.831015   4.258715   1.770417
     8  H    2.163370   1.099392   2.161342   2.785277   2.506297
     9  H    2.163370   1.099392   2.161342   2.785277   2.506296
    10  H    2.785277   2.161342   1.099392   2.163370   3.792148
    11  H    2.785277   2.161342   1.099392   2.163370   3.792149
    12  H    4.258716   2.831016   2.183488   1.097034   4.942645
    13  H    4.742683   3.515154   2.186399   1.096121   5.649646
    14  H    4.258715   2.831015   2.183488   1.097034   4.942645
                    6          7          8          9         10
     6  H    0.000000
     7  H    1.769851   0.000000
     8  H    2.529501   3.083514   0.000000
     9  H    3.083514   2.529503   1.757028   0.000000
    10  H    3.147882   2.607580   3.066811   2.513599   0.000000
    11  H    2.607581   3.147880   2.513598   3.066811   1.757029
    12  H    4.817650   4.480778   3.147882   2.607581   2.529501
    13  H    4.942646   4.942645   3.792148   3.792149   2.506297
    14  H    4.480777   4.817648   2.607580   3.147880   3.083514
                   11         12         13         14
    11  H    0.000000
    12  H    3.083514   0.000000
    13  H    2.506296   1.770417   0.000000
    14  H    2.529502   1.769852   1.770416   0.000000
 Stoichiometry    C4H10
 Framework group  C1[X(C4H10)]
 Deg. of freedom    36
 Full point group                 C1      NOp   1
 Largest Abelian subgroup         C1      NOp   1
 Largest concise Abelian subgroup C1      NOp   1
                         Standard orientation:                         
 ---------------------------------------------------------------------
 Center     Atomic      Atomic             Coordinates (Angstroms)
 Number     Number       Type             X           Y           Z
 ---------------------------------------------------------------------
      1          6           0       -1.962893   -0.121180    0.000000
      2          6           0       -0.568467    0.515309    0.000000
      3          6           0        0.568467   -0.515310    0.000000
      4          6           0        1.962893    0.121180    0.000000
      5          1           0       -2.751288    0.640341   -0.000002
      6          1           0       -2.110198   -0.752599    0.884927
      7          1           0       -2.110197   -0.752601   -0.884925
      8          1           0       -0.464078    1.167980    0.878514
      9          1           0       -0.464078    1.167980   -0.878514
     10          1           0        0.464078   -1.167979   -0.878515
     11          1           0        0.464078   -1.167979    0.878514
     12          1           0        2.110198    0.752599   -0.884926
     13          1           0        2.751288   -0.640341    0.000001
     14          1           0        2.110197    0.752601    0.884925
 ---------------------------------------------------------------------
 Rotational constants (GHZ):     23.3979215      3.5950764      3.3773385

 **********************************************************************

            Population analysis using the SCF density.

 **********************************************************************

 Orbital symmetries:
       Occupied  (A) (A) (A) (A) (A) (A) (A) (A) (A) (A) (A) (A)
                 (A) (A) (A) (A) (A)
       Virtual   (A) (A) (A) (A) (A) (A) (A) (A) (A) (A) (A) (A)
                 (A) (A) (A) (A) (A) (A) (A) (A) (A) (A) (A) (A)
                 (A) (A) (A) (A) (A) (A) (A) (A) (A) (A) (A) (A)
                 (A) (A) (A) (A) (A) (A) (A) (A) (A) (A) (A) (A)
                 (A) (A) (A) (A) (A) (A) (A) (A) (A) (A) (A) (A)
                 (A) (A) (A)
 The electronic state is 1-A.
 Alpha  occ. eigenvalues --  -10.17607 -10.17586 -10.17004 -10.17004  -0.78691
 Alpha  occ. eigenvalues --   -0.71794  -0.62572  -0.57145  -0.46279  -0.42066
 Alpha  occ. eigenvalues --   -0.41304  -0.40637  -0.36424  -0.34710  -0.32836
 Alpha  occ. eigenvalues --   -0.31942  -0.31749
 Alpha virt. eigenvalues --    0.09487   0.12072   0.13591   0.14586   0.17076
 Alpha virt. eigenvalues --    0.18376   0.18472   0.18757   0.19853   0.19885
 Alpha virt. eigenvalues --    0.24658   0.25675   0.26253   0.49743   0.50483
 Alpha virt. eigenvalues --    0.55514   0.55636   0.55689   0.62218   0.65350
 Alpha virt. eigenvalues --    0.65409   0.69686   0.76364   0.79342   0.85951
 Alpha virt. eigenvalues --    0.86115   0.89311   0.90575   0.91420   0.92361
 Alpha virt. eigenvalues --    0.92602   0.95353   0.96623   0.98924   1.01815
 Alpha virt. eigenvalues --    1.02489   1.36214   1.43507   1.44563   1.46617
 Alpha virt. eigenvalues --    1.62455   1.67018   1.84398   1.88093   1.90165
 Alpha virt. eigenvalues --    1.96138   1.96212   2.01221   2.06523   2.15907
 Alpha virt. eigenvalues --    2.25805   2.25901   2.29532   2.38746   2.39990
 Alpha virt. eigenvalues --    2.40142   2.54772   2.67519   2.74385   4.12676
 Alpha virt. eigenvalues --    4.23889   4.36149   4.50901
          Condensed to atoms (all electrons):
               1          2          3          4          5          6
     1  C    5.061570   0.374965  -0.043133   0.004032   0.371815   0.377550
     2  C    0.374965   4.942587   0.396219  -0.043133  -0.027499  -0.034776
     3  C   -0.043133   0.396219   4.942587   0.374965   0.004229  -0.004566
     4  C    0.004032  -0.043133   0.374965   5.061570  -0.000154   0.000033
     5  H    0.371815  -0.027499   0.004229  -0.000154   0.579065  -0.031464
     6  H    0.377550  -0.034776  -0.004566   0.000033  -0.031464   0.579881
     7  H    0.377550  -0.034776  -0.004566   0.000033  -0.031464  -0.032870
     8  H   -0.038483   0.376832  -0.041198  -0.002980  -0.002754  -0.004501
     9  H   -0.038483   0.376832  -0.041198  -0.002980  -0.002754   0.005276
    10  H   -0.002980  -0.041198   0.376832  -0.038483  -0.000039  -0.000407
    11  H   -0.002980  -0.041198   0.376832  -0.038483  -0.000039   0.004958
    12  H    0.000033  -0.004566  -0.034776   0.377550   0.000001   0.000007
    13  H   -0.000154   0.004229  -0.027499   0.371815   0.000002   0.000001
    14  H    0.000033  -0.004566  -0.034776   0.377550   0.000001   0.000001
               7          8          9         10         11         12
     1  C    0.377550  -0.038483  -0.038483  -0.002980  -0.002980   0.000033
     2  C   -0.034776   0.376832   0.376832  -0.041198  -0.041198  -0.004566
     3  C   -0.004566  -0.041198  -0.041198   0.376832   0.376832  -0.034776
     4  C    0.000033  -0.002980  -0.002980  -0.038483  -0.038483   0.377550
     5  H   -0.031464  -0.002754  -0.002754  -0.000039  -0.000039   0.000001
     6  H   -0.032870  -0.004501   0.005276  -0.000407   0.004958   0.000007
     7  H    0.579881   0.005276  -0.004501   0.004958  -0.000407   0.000001
     8  H    0.005276   0.613944  -0.040346   0.006042  -0.005586  -0.000407
     9  H   -0.004501  -0.040346   0.613944  -0.005586   0.006042   0.004958
    10  H    0.004958   0.006042  -0.005586   0.613944  -0.040346  -0.004501
    11  H   -0.000407  -0.005586   0.006042  -0.040346   0.613944   0.005276
    12  H    0.000001  -0.000407   0.004958  -0.004501   0.005276   0.579881
    13  H    0.000001  -0.000039  -0.000039  -0.002754  -0.002754  -0.031464
    14  H    0.000007   0.004958  -0.000407   0.005276  -0.004501  -0.032870
              13         14
     1  C   -0.000154   0.000033
     2  C    0.004229  -0.004566
     3  C   -0.027499  -0.034776
     4  C    0.371815   0.377550
     5  H    0.000002   0.000001
     6  H    0.000001   0.000001
     7  H    0.000001   0.000007
     8  H   -0.000039   0.004958
     9  H   -0.000039  -0.000407
    10  H   -0.002754   0.005276
    11  H   -0.002754  -0.004501
    12  H   -0.031464  -0.032870
    13  H    0.579065  -0.031464
    14  H   -0.031464   0.579881
 Mulliken charges:
               1
     1  C   -0.441335
     2  C   -0.239952
     3  C   -0.239951
     4  C   -0.441335
     5  H    0.141054
     6  H    0.140875
     7  H    0.140875
     8  H    0.129241
     9  H    0.129241
    10  H    0.129241
    11  H    0.129241
    12  H    0.140875
    13  H    0.141054
    14  H    0.140875
 Sum of Mulliken charges =   0.00000
 Mulliken charges with hydrogens summed into heavy atoms:
               1
     1  C   -0.018531
     2  C    0.018531
     3  C    0.018531
     4  C   -0.018531
 Electronic spatial extent (au):  <R**2>=            427.4484
 Charge=              0.0000 electrons
 Dipole moment (field-independent basis, Debye):
    X=              0.0000    Y=              0.0000    Z=              0.0000  Tot=              0.0000
 Quadrupole moment (field-independent basis, Debye-Ang):
   XX=            -28.7871   YY=            -28.2372   ZZ=            -27.7398
   XY=             -0.2509   XZ=              0.0000   YZ=              0.0000
 Traceless Quadrupole moment (field-independent basis, Debye-Ang):
   XX=             -0.5324   YY=              0.0175   ZZ=              0.5149
[...]
 RMS     Force            0.000084     0.000300     YES
 Maximum Displacement     0.001014     0.001800     YES
 RMS     Displacement     0.000493     0.001200     YES
 Predicted change in Energy=-1.626526D-06
 Optimization completed.
    -- Stationary point found.
                           ----------------------------
                           !   Optimized Parameters   !
                           ! (Angstroms and Degrees)  !
 --------------------------                            --------------------------
 ! Name  Definition              Value          Derivative Info.                !
 --------------------------------------------------------------------------------
 ! R1    R(1,2)                  1.5328         -DE/DX =   -0.0004              !
 ! R2    R(1,5)                  1.0961         -DE/DX =    0.0                 !
 ! R3    R(1,6)                  1.097          -DE/DX =    0.0                 !
 ! R4    R(1,7)                  1.097          -DE/DX =    0.0                 !
 ! R5    R(2,3)                  1.5345         -DE/DX =   -0.0003              !
 ! R6    R(2,8)                  1.0994         -DE/DX =    0.0001              !
 ! R7    R(2,9)                  1.0994         -DE/DX =    0.0001              !
 ! R8    R(3,4)                  1.5328         -DE/DX =   -0.0004              !
 ! R9    R(3,10)                 1.0994         -DE/DX =    0.0001              !
 ! R10   R(3,11)                 1.0994         -DE/DX =    0.0001              !
 ! R11   R(4,12)                 1.097          -DE/DX =    0.0                 !
 ! R12   R(4,13)                 1.0961         -DE/DX =    0.0                 !
 ! R13   R(4,14)                 1.097          -DE/DX =    0.0                 !
 ! A1    A(2,1,5)              111.4589         -DE/DX =    0.0                 !
 ! A2    A(2,1,6)              111.1709         -DE/DX =    0.0                 !
 ! A3    A(2,1,7)              111.1709         -DE/DX =    0.0                 !
 ! A4    A(5,1,6)              107.6556         -DE/DX =    0.0                 !
 ! A5    A(5,1,7)              107.6556         -DE/DX =    0.0                 !
 ! A6    A(6,1,7)              107.5404         -DE/DX =   -0.0001              !
 ! A7    A(1,2,3)              113.2736         -DE/DX =    0.0001              !
 ! A8    A(1,2,8)              109.4444         -DE/DX =    0.0                 !
 ! A9    A(1,2,9)              109.4444         -DE/DX =    0.0                 !
 ! A10   A(3,2,8)              109.1696         -DE/DX =    0.0                 !
 ! A11   A(3,2,9)              109.1696         -DE/DX =    0.0                 !
 ! A12   A(8,2,9)              106.0867         -DE/DX =   -0.0001              !
 ! A13   A(2,3,4)              113.2736         -DE/DX =    0.0001              !
 ! A14   A(2,3,10)             109.1696         -DE/DX =    0.0                 !
 ! A15   A(2,3,11)             109.1696         -DE/DX =    0.0                 !
 ! A16   A(4,3,10)             109.4444         -DE/DX =    0.0                 !
 ! A17   A(4,3,11)             109.4444         -DE/DX =    0.0                 !
 ! A18   A(10,3,11)            106.0868         -DE/DX =   -0.0001              !
 ! A19   A(3,4,12)             111.1709         -DE/DX =    0.0                 !
 ! A20   A(3,4,13)             111.4589         -DE/DX =    0.0                 !
 ! A21   A(3,4,14)             111.1709         -DE/DX =    0.0                 !
 ! A22   A(12,4,13)            107.6556         -DE/DX =    0.0                 !
 ! A23   A(12,4,14)            107.5404         -DE/DX =   -0.0001              !
 ! A24   A(13,4,14)            107.6555         -DE/DX =    0.0                 !
 ! D1    D(5,1,2,3)            180.0001         -DE/DX =    0.0                 !
 ! D2    D(5,1,2,8)             57.9327         -DE/DX =    0.0                 !
 ! D3    D(5,1,2,9)            -57.9325         -DE/DX =    0.0                 !
 ! D4    D(6,1,2,3)             59.887          -DE/DX =    0.0                 !
 ! D5    D(6,1,2,8)            -62.1804         -DE/DX =    0.0                 !
 ! D6    D(6,1,2,9)           -178.0455         -DE/DX =    0.0                 !
 ! D7    D(7,1,2,3)            -59.8868         -DE/DX =    0.0                 !
 ! D8    D(7,1,2,8)            178.0458         -DE/DX =    0.0                 !
 ! D9    D(7,1,2,9)             62.1806         -DE/DX =    0.0                 !
 ! D10   D(1,2,3,4)            180.0            -DE/DX =    0.0                 !
 ! D11   D(1,2,3,10)            57.7794         -DE/DX =    0.0                 !
 ! D12   D(1,2,3,11)           -57.7794         -DE/DX =    0.0                 !
 ! D13   D(8,2,3,4)            -57.7793         -DE/DX =    0.0                 !
 ! D14   D(8,2,3,10)           180.0            -DE/DX =    0.0                 !
 ! D15   D(8,2,3,11)            64.4413         -DE/DX =    0.0001              !
 ! D16   D(9,2,3,4)             57.7793         -DE/DX =    0.0                 !
 ! D17   D(9,2,3,10)           -64.4413         -DE/DX =   -0.0001              !
 ! D18   D(9,2,3,11)           180.0            -DE/DX =    0.0                 !
 ! D19   D(2,3,4,12)           -59.887          -DE/DX =    0.0                 !
 ! D20   D(2,3,4,13)          -180.0001         -DE/DX =    0.0                 !
 ! D21   D(2,3,4,14)            59.8869         -DE/DX =    0.0                 !
 ! D22   D(10,3,4,12)           62.1804         -DE/DX =    0.0                 !
 ! D23   D(10,3,4,13)          -57.9327         -DE/DX =    0.0                 !
 ! D24   D(10,3,4,14)         -178.0457         -DE/DX =    0.0                 !
 ! D25   D(11,3,4,12)          178.0456         -DE/DX =    0.0                 !
 ! D26   D(11,3,4,13)           57.9325         -DE/DX =    0.0                 !
 ! D27   D(11,3,4,14)          -62.1805         -DE/DX =    0.0                 !
 --------------------------------------------------------------------------------
 GradGradGradGradGradGradGradGradGradGradGradGradGradGradGradGradGradGrad

 1\1\GINC-ABCSIM\Freq\RB3LYP\6-31G(d)\C4H10\MATEUS\01-Oct-2019\0\\#N Ge
 om=AllCheck Guess=TCheck SCRF=Check GenChk RB3LYP/6-31G(d) Freq\\molec
 ule_1 CCCC\\0,1\C,1.0132717956,-0.0030425072,-0.084429955\C,2.54574665
 84,-0.03336031,-0.0724063182\C,3.121943301,-1.3554415911,0.451897709\C
 ,4.6544182609,-1.3857589949,0.463921289\H,0.6340711057,0.9529636734,-0
 .4635598426\H,0.6062451008,-0.1459698728,0.9242247456\H,0.606245282,-0
 .7984179004,-0.7209759996\H,2.9233540714,0.7947753877,0.5442516681\H,2
 .9233546478,0.1470575073,-1.089030353\H,2.7443358694,-2.1835768487,-0.
 1647605516\H,2.74433552,-1.5358584158,1.4685218557\H,5.0614449351,-1.2
 428309082,-0.5447332641\H,5.0336192698,-2.3417652582,0.8430508753\H,5.
 061444182,-0.590383961,1.1004681416\\Version=ES64L-G09RevD.01\State=1-
 A\HF=-158.4580406\RMSD=2.642e-10\RMSF=2.058e-04\ZeroPoint=0.132865\The
 rmal=0.1386025\Dipole=0.,0.,0.\DipoleDeriv=0.0534299,0.0064857,-0.0025
 72,0.0625157,0.096989,0.0143407,-0.0247922,0.0143408,0.1274633,0.10056
 96,0.0234197,-0.0092877,-0.0122217,0.1310833,0.0177541,0.0048468,0.017
 754,0.168811,0.1005695,0.0234197,-0.0092876,-0.0122216,0.1310831,0.017
 7542,0.0048469,0.0177541,0.1688108,0.0534298,0.0064854,-0.002572,0.062
 5155,0.096989,0.0143406,-0.0247921,0.0143407,0.1274633,-0.0412816,0.07
 84308,-0.0311038,0.1011861,-0.1181816,0.0720869,-0.040128,0.0720869,0.
 0350033,-0.0139529,-0.0056418,0.0483573,-0.0277345,0.054206,0.0338561,
 0.0958179,0.0237886,-0.1366429,-0.0139528,-0.0372508,-0.0313472,-0.085
 8664,-0.0642097,-0.1020284,-0.0507664,-0.0919609,-0.0182274,-0.0424061
 ,-0.0596765,-0.0549921,-0.0461095,-0.1107495,-0.0716084,-0.0610007,-0.
 093615,-0.0273978,-0.0424062,-0.0057671,0.0809454,0.0082304,0.0108626,
 0.035599,0.0760226,0.0576056,-0.1490096,-0.0424061,-0.0596765,-0.05499
 21,-0.0461095,-0.1107493,-0.0716082,-0.0610006,-0.0936149,-0.0273977,-
 0.042406,-0.0057672,0.0809453,0.0082304,0.0108626,0.0355988,0.0760225,
 0.0576055,-0.1490094,-0.0139528,-0.0056418,0.0483573,-0.0277346,0.0542
 059,0.0338562,0.0958178,0.0237887,-0.1366427,-0.0412816,0.078431,-0.03
 11038,0.1011861,-0.1181817,0.0720868,-0.040128,0.0720869,0.0350033,-0.
 0139527,-0.0372506,-0.0313471,-0.0858663,-0.0642096,-0.1020285,-0.0507
 664,-0.0919609,-0.0182275\Polar=48.0779335,-3.0550308,43.0537902,1.211
 5544,-0.8831278,41.1771292\PG=C01 [X(C4H10)]\NImag=0\\0.47571131,-0.00
 121080,0.57842257,0.00048010,-0.00241829,0.57328404,-0.19351137,-0.001
 40073,0.00055548,0.48770399,-0.00047766,-0.08130559,-0.00018913,0.0361
 0564,0.51752793,0.00018941,-0.00018915,-0.08170755,-0.01431875,0.03024
 310,0.58179563,-0.01615326,0.03240461,-0.01285086,-0.09026218,0.029221
 16,-0.01158835,0.48770387,0.00543640,0.00015968,-0.00010764,0.02922117
 ,-0.16319503,0.03200957,0.03610577,0.51752788,-0.00215595,-0.00010763,
 -0.00006906,-0.01158835,0.03200957,-0.09517414,-0.01431873,0.03024348,
 0.58179615,0.00007904,0.00101408,-0.00040216,-0.01615328,0.00543641,-0
 .00215595,-0.19351125,-0.00047769,0.00018942,0.47571114,0.00101408,-0.
 00591693,0.00214455,0.03240462,0.00015968,-0.00010763,-0.00140078,-0.0
 8130558,-0.00018916,-0.00121082,0.57842237,-0.00040216,0.00214455,-0.0
 0135973,-0.01285087,-0.00010764,-0.00006906,0.00055548,-0.00018915,-0.
 08170757,0.00048001,-0.00241824,0.57328430,-0.07748715,0.07627636,-0.0
 3024943,-0.01032231,0.03157629,-0.01252241,-0.00693780,-0.00272574,0.0
 0108095,-0.00003928,0.00219699,-0.00087127,0.08478986,0.07687475,-0.25
 171025,0.07998190,-0.00129306,0.00145886,-0.00112423,0.00054358,0.0010
 2797,-0.00031867,-0.00034945,0.00003747,0.00021772,-0.08453115,0.27112
 878,-0.03048674,0.07998190,-0.08174850,0.00051280,-0.00112423,-0.00093
 014,-0.00021557,-0.00031867,0.00035079,0.00013858,0.00021772,0.0005001
 3,0.03352308,-0.08839610,0.08328680,-0.08173337,-0.01185092,0.08524395
 ,-0.01305464,-0.00424302,0.03323639,0.00155487,-0.00123252,0.00146442,
 -0.00003569,-0.00006308,-0.00027891,0.00390677,0.00023471,-0.01097004,
 0.09035699,-0.01190084,-0.05509896,0.03092492,-0.00023303,-0.00076644,
 -0.00014542,0.00021454,0.00035287,-0.00112622,0.00008097,-0.00002417,0
 .00003883,-0.01142897,-0.00280850,0.02781286,0.01336572,0.05334800,0.0
 8559811,0.03086118,-0.27223133,-0.00006389,-0.00003405,0.00133464,-0.0
 0035865,0.00002174,0.00041964,-0.00007587,-0.00020406,0.00041085,0.003
 12766,0.00083323,-0.00989344,-0.09495028,-0.03473630,0.29452128,-0.081
 73332,-0.06705289,-0.05395243,-0.01305462,-0.02586878,-0.02129477,0.00
 155488,-0.00190118,-0.00022168,-0.00003569,0.00014521,0.00024634,0.003
 90677,0.00768939,0.00782752,0.00425214,0.00987937,0.00630812,0.0903569
 3,-0.06733197,-0.18792744,-0.11026943,-0.00012590,0.00031006,0.0011097
 2,0.00040204,0.00093546,0.00064075,0.00011096,0.00026263,0.00010067,-0
 .01046616,-0.02043325,-0.01789308,0.00287081,0.00407404,0.00326488,0.0
 7480832,0.20130528,-0.05417611,-0.11020568,-0.13940273,0.00020621,0.00
 099834,0.00025814,0.00011414,-0.00050721,-0.00016294,-0.00000025,0.000
 34356,0.00012404,0.00555544,0.00908655,0.00773129,-0.01136453,-0.02334
 239,-0.01725836,0.05998242,0.12246868,0.14656391,-0.01365517,-0.026081
 88,-0.02069830,-0.07698998,-0.06341154,-0.04696826,0.00323126,0.009570
 04,0.00734171,0.00112456,0.00057897,0.00083236,0.00136730,0.00047988,-
 0.00013541,0.00152832,-0.00005638,0.00055279,-0.00708582,0.00034214,0.
 00031000,0.08696050,0.00053710,0.00127555,0.00110877,-0.06367758,-0.18
 914595,-0.10702094,-0.00904704,-0.02489104,-0.01771182,-0.00153258,0.0
 0095245,-0.00066702,-0.00047983,0.00067086,0.00015024,-0.00031253,-0.0
 0006570,0.00016556,0.00066838,0.00116338,0.00023188,0.06796315,0.20848
 564,0.00030694,0.00068405,0.00014865,-0.04726188,-0.10736137,-0.134145
 23,0.00371674,0.01005941,0.00687194,0.00046064,-0.00011017,0.00027374,
 -0.00036499,0.00010363,-0.00014830,-0.00034690,0.00043740,0.00077036,0
 .00018567,0.00059267,0.00142541,0.05393382,0.11716167,0.14124138,-0.01
 365518,-0.00480707,0.03294807,-0.07699009,-0.01398632,0.07766247,0.003
 23127,0.00193721,-0.01190520,0.00112456,-0.00014886,-0.00100293,0.0013
 6731,0.00044225,-0.00023029,-0.00708582,0.00003667,-0.00046024,0.00152
 831,-0.00041992,-0.00036391,0.00384758,0.00244018,-0.01065815,0.086960
 61,0.00018076,-0.00014855,-0.00082906,-0.01397883,-0.05631660,0.033771
 26,-0.00913542,-0.00615214,0.02996966,-0.00143173,0.00102153,-0.000036
 78,-0.00009926,0.00015938,-0.00043982,0.00035947,0.00087494,0.00028620
 ,0.00001017,0.00002609,0.00053493,0.00908164,0.00427460,-0.02361812,0.
 01252689,0.05995302,-0.00059164,-0.00040434,0.00157277,0.07805863,0.03
 411169,-0.26697475,0.00349396,0.00219844,-0.01186695,0.00071493,-0.000
 59362,0.00020467,0.00059465,-0.00039321,0.00036318,-0.00059329,-0.0000
 7459,0.00171385,0.00046681,0.00026308,0.00067856,0.00608890,0.00253536
 ,-0.01812605,-0.08585432,-0.04065582,0.28977412,0.00112457,0.00057897,
 0.00083236,0.00323126,0.00957004,0.00734171,-0.07699001,-0.06341165,-0
 .04696835,-0.01365516,-0.02608187,-0.02069829,0.00013413,-0.00019826,-
 0.00000941,-0.00003408,0.00006062,0.00005467,0.00000889,-0.00018735,-0
 .00029505,-0.00056991,0.00257287,-0.00096033,0.00013241,-0.00071392,-0
 .00004752,0.08696052,-0.00153258,0.00095245,-0.00066701,-0.00904704,-0
 .02489107,-0.01771183,-0.06367769,-0.18914604,-0.10702112,0.00053711,0
 .00127556,0.00110878,-0.00003954,0.00044806,0.00040470,0.00013463,0.00
 000203,0.00002775,0.00126010,0.00042109,0.00045715,0.00257287,-0.00475
 055,0.00283314,-0.00048731,0.00115959,0.00032354,0.06796325,0.20848575
 ,0.00046064,-0.00011018,0.00027374,0.00371674,0.01005941,0.00687195,-0
 .04726197,-0.10736156,-0.13414542,0.00030694,0.00068405,0.00014866,0.0
 0032389,0.00007038,0.00004818,-0.00011624,-0.00007210,-0.00005110,0.00
 025689,-0.00029838,0.00013223,-0.00096033,0.00283314,0.00056778,0.0005
 2390,-0.00048219,0.00099103,0.05393392,0.11716184,0.14124150,0.0011245
 6,-0.00014886,-0.00100293,0.00323127,0.00193721,-0.01190520,-0.0769900
 8,-0.01398629,0.07766255,-0.01365518,-0.00480707,0.03294807,0.00013413
 ,-0.00013793,0.00014273,0.00000889,0.00006579,0.00034325,-0.00003408,0
 .00000667,-0.00008136,0.00013241,-0.00048731,0.00052390,-0.00056991,0.
 00253175,-0.00106403,0.00384758,0.00244019,-0.01065816,0.08696060,-0.0
 0143173,0.00102153,-0.00003678,-0.00913541,-0.00615215,0.02996969,-0.0
 1397879,-0.05631651,0.03377110,0.00018076,-0.00014855,-0.00082906,-0.0
 0025078,0.00002313,-0.00038112,0.00074154,0.00020616,-0.00052674,0.000
 17770,-0.00000079,-0.00007510,-0.00071392,0.00115959,-0.00048219,0.002
 53175,-0.00508037,0.00248271,0.00908165,0.00427460,-0.02361811,0.01252
 684,0.05995295,0.00071493,-0.00059362,0.00020467,0.00349396,0.00219845
 ,-0.01186697,0.07805871,0.03411154,-0.26697508,-0.00059164,-0.00040434
 ,0.00157277,-0.00020876,-0.00004680,0.00047311,-0.00105069,0.00022880,
 0.00034715,-0.00000762,0.00002475,-0.00004828,-0.00004752,0.00032354,0
 .00099103,-0.00106403,0.00248271,0.00089759,0.00608890,0.00253538,-0.0
 1812600,-0.08585440,-0.04065570,0.28977442,-0.00003569,-0.00006308,-0.
 00027891,0.00155487,-0.00123252,0.00146442,-0.01305463,-0.00424304,0.0
 3323638,-0.08173338,-0.01185100,0.08524399,0.00002330,0.00005259,-0.00
 012333,0.00031651,-0.00002808,-0.00018456,-0.00000420,-0.00002932,0.00
 003400,-0.00003408,0.00013463,-0.00011624,0.00000889,0.00074154,-0.001
 05069,0.00152832,-0.00031253,-0.00034690,-0.00708582,0.00035947,-0.000
 59329,0.09035700,0.00008097,-0.00002417,0.00003883,0.00021454,0.000352
 87,-0.00112622,-0.00023303,-0.00076644,-0.00014541,-0.01190092,-0.0550
 9899,0.03092510,-0.00001172,0.00000133,-0.00000059,-0.00002808,-0.0000
 7222,0.00006429,-0.00004465,-0.00002339,-0.00000949,0.00006062,0.00000
 203,-0.00007210,0.00006579,0.00020616,0.00022880,-0.00005638,-0.000065
 70,0.00043740,0.00003667,0.00087494,-0.00007459,0.01336580,0.05334803,
 -0.00007587,-0.00020406,0.00041085,-0.00035865,0.00002174,0.00041964,-
 0.00006389,-0.00003405,0.00133465,0.08559815,0.03086135,-0.27223139,0.
 00011355,-0.00003802,-0.00000630,-0.00018456,0.00006429,-0.00005898,-0
 .00000467,0.00001434,-0.00001824,0.00005467,0.00002775,-0.00005110,0.0
 0034325,-0.00052674,0.00034715,0.00055280,0.00016555,0.00077035,-0.000
 46024,0.00028620,0.00171385,-0.09495032,-0.03473649,0.29452131,-0.0000
 3928,0.00219699,-0.00087127,-0.00693780,-0.00272574,0.00108095,-0.0103
 2231,0.03157629,-0.01252239,-0.07748719,0.07627637,-0.03024940,-0.0008
 6634,0.00006987,-0.00002771,0.00002330,-0.00001172,0.00011355,0.000023
 30,-0.00008636,-0.00007466,0.00013413,-0.00003954,0.00032389,0.0001341
 3,-0.00025077,-0.00020876,0.00136730,-0.00047983,-0.00036499,0.0013673
 1,-0.00009926,0.00059465,0.00390678,-0.01142898,0.00312765,0.08478990,
 -0.00034945,0.00003747,0.00021772,0.00054358,0.00102796,-0.00031867,-0
 .00129306,0.00145887,-0.00112424,0.07687476,-0.25171014,0.07998177,0.0
 0006987,-0.00002085,0.00000755,0.00005259,0.00000133,-0.00003802,0.000
 12282,0.00001702,0.00001607,-0.00019826,0.00044806,0.00007038,-0.00013
 793,0.00002313,-0.00004680,0.00047988,0.00067086,0.00010363,0.00044225
 ,0.00015938,-0.00039321,0.00023472,-0.00280852,0.00083324,-0.08453117,
 0.27112869,0.00013858,0.00021772,0.00050013,-0.00021557,-0.00031867,0.
 00035079,0.00051280,-0.00112422,-0.00093014,-0.03048671,0.07998178,-0.
 08174844,-0.00002771,0.00000755,-0.00000480,-0.00012333,-0.00000059,-0
 .00000630,0.00005377,-0.00002136,-0.00002199,-0.00000941,0.00040470,0.
 00004818,0.00014273,-0.00038112,0.00047311,-0.00013541,0.00015024,-0.0
 0014830,-0.00023029,-0.00043982,0.00036318,-0.01097005,0.02781285,-0.0
 0989342,0.03352306,-0.08839596,0.08328673,-0.00003569,0.00014521,0.000
 24634,0.00155488,-0.00190118,-0.00022168,-0.01305462,-0.02586877,-0.02
 129479,-0.08173322,-0.06705278,-0.05395242,0.00002330,0.00012282,0.000
 05377,-0.00000420,-0.00004465,-0.00000467,0.00031651,0.00010604,0.0001
 5364,0.00000889,0.00126010,0.00025689,-0.00003408,0.00017770,-0.000007
 62,-0.00708582,0.00066838,0.00018567,0.00152832,0.00001017,0.00046681,
 0.00425214,0.00987937,0.00630812,0.00390677,0.00768939,0.00782753,0.09
 035683,0.00011096,0.00026263,0.00010067,0.00040204,0.00093546,0.000640
 75,-0.00012591,0.00031005,0.00110971,-0.06733186,-0.18792733,-0.110269
 53,-0.00008636,0.00001702,-0.00002136,-0.00002932,-0.00002339,0.000014
 34,0.00010604,-0.00013018,0.00000271,-0.00018735,0.00042108,-0.0002983
 8,0.00000667,-0.00000079,0.00002475,0.00034214,0.00116338,0.00059267,-
 0.00041992,0.00002609,0.00026308,0.00287082,0.00407406,0.00326491,-0.0
 1046615,-0.02043325,-0.01789310,0.07480820,0.20130517,-0.00000024,0.00
 034356,0.00012404,0.00011414,-0.00050722,-0.00016294,0.00020621,0.0009
 9834,0.00025814,-0.05417610,-0.11020578,-0.13940297,-0.00007466,0.0000
 1607,-0.00002199,0.00003400,-0.00000949,-0.00001824,0.00015364,0.00000
 271,-0.00000102,-0.00029505,0.00045716,0.00013223,-0.00008136,-0.00007
 510,-0.00004828,0.00031000,0.00023188,0.00142541,-0.00036391,0.0005349
 3,0.00067856,-0.01136452,-0.02334237,-0.01725836,0.00555542,0.00908653
 ,0.00773128,0.05998241,0.12246878,0.14656414\\-0.00043004,-0.00013338,
 0.00005296,0.00058322,0.00050247,-0.00019936,-0.00058333,-0.00050272,0
 .00019943,0.00043010,0.00013345,-0.00005305,0.00000050,0.00002782,-0.0
 0001106,0.00003828,0.00006240,-0.00000112,0.00003824,0.00004618,-0.000
 04198,-0.00010628,-0.00007827,0.00005025,-0.00010631,-0.00009143,0.000
 01714,0.00010631,0.00007838,-0.00005028,0.00010634,0.00009155,-0.00001
 717,-0.00003830,-0.00006241,0.00000113,-0.00000048,-0.00002785,0.00001
 110,-0.00003827,-0.00004620,0.00004201\\\@


 IF AT FIRST YOU DON'T SUCCEED, TRY, TRY AGAIN.
 THEN GIVE UP;
 THERE'S NO USE BEING A DAMN FOOL ABOUT IT.

                                 -- W. C. FIELDS
 Job cpu time:       0 days  0 hours  1 minutes  5.4 seconds.
 File lengths (MBytes):  RWF=     14 Int=      0 D2E=      0 Chk=      2 Scr=      1
 Normal termination of Gaussian 09 at Tue Oct  1 16:16:51 2019.
