 Entering Gaussian System, Link 0=g09
 Initial command:
 /media/mateus/HDD/gaussian-09d01/pgi-14.3/g09/l1.exe "/media/mateus/HDD/gaussian-09d01/pgi-14.3/Gau-25924.inp" -scrdir="/media/mateus/HDD/gaussian-09d01/pgi-14.3/"
 Entering Link 1 = /media/mateus/HDD/gaussian-09d01/pgi-14.3/g09/l1.exe PID=     25926.
  
 Copyright (c) 1988,1990,1992,1993,1995,1998,2003,2009,2013,
            Gaussian, Inc.  All Rights Reserved.
  
 This is part of the Gaussian(R) 09 program.  It is based on
 the Gaussian(R) 03 system (copyright 2003, Gaussian, Inc.),
 the Gaussian(R) 98 system (copyright 1998, Gaussian, Inc.),
 the Gaussian(R) 94 system (copyright 1995, Gaussian, Inc.),
 the Gaussian 92(TM) system (copyright 1992, Gaussian, Inc.),
 the Gaussian 90(TM) system (copyright 1990, Gaussian, Inc.),
 the Gaussian 88(TM) system (copyright 1988, Gaussian, Inc.),
 the Gaussian 86(TM) system (copyright 1986, Carnegie Mellon
 University), and the Gaussian 82(TM) system (copyright 1983,
 Carnegie Mellon University). Gaussian is a federally registered
 trademark of Gaussian, Inc.
  
 This software contains proprietary and confidential information,
 including trade secrets, belonging to Gaussian, Inc.
  
 This software is provided under written license and may be
 used, copied, transmitted, or stored only in accord with that
 written license.
  
 The following legend is applicable only to US Government
 contracts under FAR:
  
                    RESTRICTED RIGHTS LEGEND
  
 Use, reproduction and disclosure by the US Government is
 subject to restrictions as set forth in subparagraphs (a)
 and (c) of the Commercial Computer Software - Restricted
 Rights clause in FAR 52.227-19.
  
 Gaussian, Inc.
 340 Quinnipiac St., Bldg. 40, Wallingford CT 06492
  
  
 ---------------------------------------------------------------
 Warning -- This program may not be used in any manner that
 competes with the business of Gaussian, Inc. or will provide
 assistance to any competitor of Gaussian, Inc.  The licensee
 of this program is prohibited from giving any competitor of
 Gaussian, Inc. access to this program.  By using this program,
 the user acknowledges that Gaussian, Inc. is engaged in the
 business of creating and licensing software in the field of
 computational chemistry and represents and warrants to the
 licensee that it is not a competitor of Gaussian, Inc. and that
 it will not use this program in any manner prohibited above.
 ---------------------------------------------------------------
  

 Cite this work as:
 Gaussian 09, Revision D.01,
 M. J. Frisch, G. W. Trucks, H. B. Schlegel, G. E. Scuseria, 
 M. A. Robb, J. R. Cheeseman, G. Scalmani, V. Barone, B. Mennucci, 
 G. A. Petersson, H. Nakatsuji, M. Caricato, X. Li, H. P. Hratchian, 
 A. F. Izmaylov, J. Bloino, G. Zheng, J. L. Sonnenberg, M. Hada, 
 M. Ehara, K. Toyota, R. Fukuda, J. Hasegawa, M. Ishida, T. Nakajima, 
 Y. Honda, O. Kitao, H. Nakai, T. Vreven, J. A. Montgomery, Jr., 
 J. E. Peralta, F. Ogliaro, M. Bearpark, J. J. Heyd, E. Brothers, 
 K. N. Kudin, V. N. Staroverov, T. Keith, R. Kobayashi, J. Normand, 
 K. Raghavachari, A. Rendell, J. C. Burant, S. S. Iyengar, J. Tomasi, 
 M. Cossi, N. Rega, J. M. Millam, M. Klene, J. E. Knox, J. B. Cross, 
 V. Bakken, C. Adamo, J. Jaramillo, R. Gomperts, R. E. Stratmann, 
 O. Yazyev, A. J. Austin, R. Cammi, C. Pomelli, J. W. Ochterski, 
 R. L. Martin, K. Morokuma, V. G. Zakrzewski, G. A. Voth, 
 P. Salvador, J. J. Dannenberg, S. Dapprich, A. D. Daniels, 
 O. Farkas, J. B. Foresman, J. V. Ortiz, J. Cioslowski, 
 and D. J. Fox, Gaussian, Inc., Wallingford CT, 2013.
 
 ******************************************
 Gaussian 09:  ES64L-G09RevD.01 24-Apr-2013
                 1-Oct-2019 
 ******************************************
 %nprocs=8
 Will use up to    8 processors via shared memory.
 %mem=16GB
 %chk=/home/mateus/github/db_singletoxygen/chk/molecule_2.chk
 ------------------------
 #opt freq b3lyp/6-31g(d)
 ------------------------
 1/14=-1,18=20,19=15,26=3,38=1/1,3;
 2/9=110,12=2,17=6,18=5,40=1/2;
 3/5=1,6=6,7=1,11=2,16=1,25=1,30=1,71=1,74=-5/1,2,3;
 4//1;
 5/5=2,38=5/2;
 6/7=2,8=2,9=2,10=2,28=1/1;
 7//1,2,3,16;
 1/14=-1,18=20,19=15,26=3/3(2);
 2/9=110/2;
 99//99;
 2/9=110/2;
 3/5=1,6=6,7=1,11=2,16=1,25=1,30=1,71=1,74=-5/1,2,3;
 4/5=5,16=3,69=1/1;
 5/5=2,38=5/2;
 7//1,2,3,16;
 1/14=-1,18=20,19=15,26=3/3(-5);
 2/9=110/2;
 6/7=2,8=2,9=2,10=2,19=2,28=1/1;
 99/9=1/99;
 --------------
 molecule_2 C#C
 --------------
 Symbolic Z-matrix:
 Charge =  0 Multiplicity = 1
 C                     1.07006   0.08187  -0.05443 
 C                     2.27036   0.08187  -0.05443 
 H                     0.00426   0.08187  -0.05443 
 H                     3.33617   0.08187  -0.05443 
 

 GradGradGradGradGradGradGradGradGradGradGradGradGradGradGradGradGradGrad
 Berny optimization.
 Initialization pass.
                           ----------------------------
                           !    Initial Parameters    !
                           ! (Angstroms and Degrees)  !
 --------------------------                            --------------------------
 ! Name  Definition              Value          Derivative Info.                !
 --------------------------------------------------------------------------------
 ! R1    R(1,2)                  1.2003         estimate D2E/DX2                !
 ! R2    R(1,3)                  1.0658         estimate D2E/DX2                !
 ! R3    R(2,4)                  1.0658         estimate D2E/DX2                !
 ! A1    L(2,1,3,-2,-1)        180.0            estimate D2E/DX2                !
 ! A2    L(1,2,4,-2,-1)        180.0            estimate D2E/DX2                !
 ! A3    L(2,1,3,-3,-2)        180.0            estimate D2E/DX2                !
 ! A4    L(1,2,4,-3,-2)        180.0            estimate D2E/DX2                !
 --------------------------------------------------------------------------------
 Trust Radius=3.00D-01 FncErr=1.00D-07 GrdErr=1.00D-06
 Number of steps in this run=     20 maximum allowed number of steps=    100.
 GradGradGradGradGradGradGradGradGradGradGradGradGradGradGradGradGradGrad

                          Input orientation:                          
 ---------------------------------------------------------------------
 Center     Atomic      Atomic             Coordinates (Angstroms)
 Number     Number       Type             X           Y           Z
 ---------------------------------------------------------------------
      1          6           0        1.070060    0.081870   -0.054430
      2          6           0        2.270360    0.081870   -0.054430
      3          1           0        0.004260    0.081870   -0.054430
      4          1           0        3.336170    0.081870   -0.054430
 ---------------------------------------------------------------------
                    Distance matrix (angstroms):
                    1          2          3          4
     1  C    0.000000
     2  C    1.200300   0.000000
     3  H    1.065800   2.266100   0.000000
     4  H    2.266110   1.065810   3.331910   0.000000
 Stoichiometry    C2H2
 Framework group  C*V[C*(HCCH)]
 Deg. of freedom     3
 Full point group                 C*V     NOp   4
 Largest Abelian subgroup         C2V     NOp   4
 Largest concise Abelian subgroup C1      NOp   1
                         Standard orientation:                         
 ---------------------------------------------------------------------
 Center     Atomic      Atomic             Coordinates (Angstroms)
 Number     Number       Type             X           Y           Z
 ---------------------------------------------------------------------
      1          6           0        0.000000    0.000000    0.600151
      2          6           0        0.000000    0.000000   -0.600149
      3          1           0        0.000000    0.000000    1.665951
      4          1           0        0.000000    0.000000   -1.665959
 ---------------------------------------------------------------------
 Rotational constants (GHZ):      0.0000000     35.4936680     35.4936680
 Standard basis: 6-31G(d) (6D, 7F)
 There are    20 symmetry adapted cartesian basis functions of A1  symmetry.
 There are     2 symmetry adapted cartesian basis functions of A2  symmetry.
 There are     6 symmetry adapted cartesian basis functions of B1  symmetry.
 There are     6 symmetry adapted cartesian basis functions of B2  symmetry.
 There are    20 symmetry adapted basis functions of A1  symmetry.
 There are     2 symmetry adapted basis functions of A2  symmetry.
 There are     6 symmetry adapted basis functions of B1  symmetry.
 There are     6 symmetry adapted basis functions of B2  symmetry.
    34 basis functions,    64 primitive gaussians,    34 cartesian basis functions
     7 alpha electrons        7 beta electrons
       nuclear repulsion energy        24.7904467613 Hartrees.
 NAtoms=    4 NActive=    4 NUniq=    4 SFac= 1.00D+00 NAtFMM=   60 NAOKFM=F Big=F
 Integral buffers will be    131072 words long.
 Raffenetti 2 integral format.
 Two-electron integral symmetry is turned on.
 One-electron integrals computed using PRISM.
 NBasis=    34 RedAO= T EigKep=  2.00D-03  NBF=    20     2     6     6
 NBsUse=    34 1.00D-06 EigRej= -1.00D+00 NBFU=    20     2     6     6
 ExpMin= 1.61D-01 ExpMax= 3.05D+03 ExpMxC= 4.57D+02 IAcc=1 IRadAn=         1 AccDes= 0.00D+00
 Harris functional with IExCor=  402 and IRadAn=       1 diagonalized for initial guess.
 HarFok:  IExCor=  402 AccDes= 0.00D+00 IRadAn=         1 IDoV= 1 UseB2=F ITyADJ=14
 ICtDFT=  3500011 ScaDFX=  1.000000  1.000000  1.000000  1.000000
 FoFCou: FMM=F IPFlag=           0 FMFlag=      100000 FMFlg1=           0
         NFxFlg=           0 DoJE=T BraDBF=F KetDBF=T FulRan=T
         wScrn=  0.000000 ICntrl=     500 IOpCl=  0 I1Cent=   200000004 NGrid=           0
         NMat0=    1 NMatS0=      1 NMatT0=    0 NMatD0=    1 NMtDS0=    0 NMtDT0=    0
 Petite list used in FoFCou.
 Initial guess orbital symmetries:
       Occupied  (SG) (SG) (SG) (SG) (SG) (PI) (PI)
       Virtual   (PI) (PI) (SG) (SG) (SG) (SG) (PI) (PI) (PI) (PI)
                 (SG) (SG) (SG) (SG) (PI) (PI) (DLTA) (DLTA) (SG)
                 (DLTA) (DLTA) (SG) (PI) (PI) (SG) (SG) (SG)
 The electronic state of the initial guess is 1-SG.
 Keep R1 ints in memory in symmetry-blocked form, NReq=1062452.
 Requested convergence on RMS density matrix=1.00D-08 within 128 cycles.
 Requested convergence on MAX density matrix=1.00D-06.
 Requested convergence on             energy=1.00D-06.
 No special actions if energy rises.
 Integral accuracy reduced to 1.0D-05 until final iterations.
 Initial convergence to 1.0D-05 achieved.  Increase integral accuracy.
 SCF Done:  E(RB3LYP) =  -77.3256007237     A.U. after   10 cycles
            NFock= 10  Conv=0.16D-08     -V/T= 2.0100

 **********************************************************************

            Population analysis using the SCF density.

 **********************************************************************

 Orbital symmetries:
       Occupied  (SG) (SG) (SG) (SG) (SG) (PI) (PI)
       Virtual   (PI) (PI) (SG) (SG) (SG) (SG) (PI) (PI) (PI) (PI)
                 (SG) (SG) (SG) (SG) (SG) (PI) (PI) (DLTA) (DLTA)
                 (DLTA) (DLTA) (SG) (PI) (PI) (SG) (SG) (SG)
 The electronic state is 1-SG.
 Alpha  occ. eigenvalues --  -10.19100 -10.18850  -0.74352  -0.56507  -0.49182
 Alpha  occ. eigenvalues --   -0.28264  -0.28264
 Alpha virt. eigenvalues --    0.05383   0.05383   0.10658   0.14917   0.42870
 Alpha virt. eigenvalues --    0.47024   0.53220   0.53220   0.65531   0.65531
 Alpha virt. eigenvalues --    0.74691   0.82421   1.03071   1.22630   1.50703
 Alpha virt. eigenvalues --    1.50951   1.50951   1.54789   1.54789   1.94628
 Alpha virt. eigenvalues --    1.94628   2.43595   2.49219   2.49219   3.20269
 Alpha virt. eigenvalues --    4.13953   4.33143
          Condensed to atoms (all electrons):
               1          2          3          4
     1  C    4.874891   0.987043   0.357875  -0.032445
     2  C    0.987043   4.874897  -0.032448   0.357873
     3  H    0.357875  -0.032448   0.485208   0.002001
     4  H   -0.032445   0.357873   0.002001   0.485204
 Mulliken charges:
               1
     1  C   -0.187365
     2  C   -0.187365
     3  H    0.187363
     4  H    0.187367
 Sum of Mulliken charges =   0.00000
 Mulliken charges with hydrogens summed into heavy atoms:
               1
     1  C   -0.000001
     2  C    0.000001
 Electronic spatial extent (au):  <R**2>=             59.6388
 Charge=              0.0000 electrons
 Dipole moment (field-independent basis, Debye):
    X=              0.0000    Y=              0.0000    Z=              0.0000  Tot=              0.0000
 Quadrupole moment (field-independent basis, Debye-Ang):
   XX=            -13.0060   YY=            -13.0060   ZZ=             -6.7824
   XY=              0.0000   XZ=              0.0000   YZ=              0.0000
 Traceless Quadrupole moment (field-independent basis, Debye-Ang):
   XX=             -2.0745   YY=             -2.0745   ZZ=              4.1490
   XY=              0.0000   XZ=              0.0000   YZ=              0.0000
 Octapole moment (field-independent basis, Debye-Ang**2):
  XXX=              0.0000  YYY=              0.0000  ZZZ=             -0.0001  XYY=              0.0000
  XXY=              0.0000  XXZ=              0.0000  XZZ=              0.0000  YZZ=              0.0000
  YYZ=              0.0000  XYZ=              0.0000
 Hexadecapole moment (field-independent basis, Debye-Ang**3):
 XXXX=            -13.3166 YYYY=            -13.3166 ZZZZ=            -37.8644 XXXY=              0.0000
 XXXZ=              0.0000 YYYX=              0.0000 YYYZ=              0.0000 ZZZX=              0.0000
 ZZZY=              0.0000 XXYY=             -4.4389 XXZZ=            -11.5523 YYZZ=            -11.5523
 XXYZ=              0.0000 YYXZ=              0.0000 ZZXY=              0.0000
 N-N= 2.479044676134D+01 E-N=-2.286027003968D+02  KE= 7.656059675651D+01
 Symmetry A1   KE= 7.211820081003D+01
 Symmetry A2   KE= 3.964928938890D-36
 Symmetry B1   KE= 2.221197973244D+00
 Symmetry B2   KE= 2.221197973244D+00
 Calling FoFJK, ICntrl=      2127 FMM=F ISym2X=1 I1Cent= 0 IOpClX= 0 NMat=1 NMatS=1 NMatT=0.
 ***** Axes restored to original set *****
 -------------------------------------------------------------------
 Center     Atomic                   Forces (Hartrees/Bohr)
 Number     Number              X              Y              Z
 -------------------------------------------------------------------
      1        6          -0.009509558    0.000000000    0.000000000
      2        6           0.009517470    0.000000000    0.000000000
      3        1          -0.000621432    0.000000000    0.000000000
      4        1           0.000613521    0.000000000    0.000000000
 -------------------------------------------------------------------
 Cartesian Forces:  Max     0.009517470 RMS     0.003892049

 GradGradGradGradGradGradGradGradGradGradGradGradGradGradGradGradGradGrad
 Berny optimization.
 FormGI is forming the generalized inverse of G from B-inverse, IUseBI=4.
 Internal  Forces:  Max     0.010130990 RMS     0.003843353
 Search for a local minimum.
 Step number   1 out of a maximum of   20
 All quantities printed in internal units (Hartrees-Bohrs-Radians)
 Mixed Optimization -- RFO/linear search
 Second derivative matrix not updated -- first step.
 The second derivative matrix:
                          R1        R2        R3        A1        A2
           R1           1.04672
           R2           0.00000   0.37766
           R3           0.00000   0.00000   0.37765
           A1           0.00000   0.00000   0.00000   0.00555
           A2           0.00000   0.00000   0.00000   0.00000   0.00555
           A3           0.00000   0.00000   0.00000   0.00000   0.00000
           A4           0.00000   0.00000   0.00000   0.00000   0.00000
                          A3        A4
           A3           0.00555
           A4           0.00000   0.00555
 ITU=  0
     Eigenvalues ---    0.00555   0.00555   0.00555   0.00555   0.37765
     Eigenvalues ---    0.37766   1.04672
 RFO step:  Lambda=-1.00074633D-04 EMin= 5.54817386D-03
 Linear search not attempted -- first point.
 Iteration  1 RMS(Cart)=  0.00432010 RMS(Int)=  0.00000000
 Iteration  2 RMS(Cart)=  0.00000000 RMS(Int)=  0.00000000
 ClnCor:  largest displacement from symmetrization is 1.62D-13 for atom     1.
 Variable       Old X    -DE/DX   Delta X   Delta X   Delta X     New X
                                 (Linear)    (Quad)   (Total)
    R1        2.26824   0.01013   0.00000   0.00968   0.00968   2.27792
    R2        2.01407   0.00062   0.00000   0.00165   0.00165   2.01572
    R3        2.01409   0.00061   0.00000   0.00162   0.00162   2.01571
    A1        3.14159   0.00000   0.00000   0.00000   0.00000   3.14159
    A2        3.14159   0.00000   0.00000   0.00000   0.00000   3.14159
    A3        3.14159   0.00000   0.00000   0.00000   0.00000   3.14159
    A4        3.14159   0.00000   0.00000   0.00000   0.00000   3.14159
         Item               Value     Threshold  Converged?
 Maximum Force            0.010131     0.000450     NO 
 RMS     Force            0.003843     0.000300     NO 
 Maximum Displacement     0.006479     0.001800     NO 
 RMS     Displacement     0.004320     0.001200     NO 
 Predicted change in Energy=-5.003732D-05
 GradGradGradGradGradGradGradGradGradGradGradGradGradGradGradGradGradGrad

                          Input orientation:                          
 ---------------------------------------------------------------------
 Center     Atomic      Atomic             Coordinates (Angstroms)
 Number     Number       Type             X           Y           Z
 ---------------------------------------------------------------------
      1          6           0        1.067502    0.081870   -0.054430
      2          6           0        2.272923    0.081870   -0.054430
      3          1           0        0.000832    0.081870   -0.054430
      4          1           0        3.339593    0.081870   -0.054430
 ---------------------------------------------------------------------
                    Distance matrix (angstroms):
                    1          2          3          4
     1  C    0.000000
     2  C    1.205421   0.000000
     3  H    1.066671   2.272092   0.000000
     4  H    2.272091   1.066669   3.338761   0.000000
 Stoichiometry    C2H2
 Framework group  C*V[C*(HCCH)]
 Deg. of freedom     3
 Full point group                 C*V     NOp   4
 Largest Abelian subgroup         C2V     NOp   4
 Largest concise Abelian subgroup C1      NOp   1
                         Standard orientation:                         
 ---------------------------------------------------------------------
 Center     Atomic      Atomic             Coordinates (Angstroms)
 Number     Number       Type             X           Y           Z
 ---------------------------------------------------------------------
      1          6           0        0.000000    0.000000    0.602711
      2          6           0        0.000000    0.000000   -0.602711
      3          1           0        0.000000    0.000000    1.669381
      4          1           0        0.000000    0.000000   -1.669380
 ---------------------------------------------------------------------
 Rotational constants (GHZ):      0.0000000     35.2536211     35.2536211
 Standard basis: 6-31G(d) (6D, 7F)
 There are    20 symmetry adapted cartesian basis functions of A1  symmetry.
 There are     2 symmetry adapted cartesian basis functions of A2  symmetry.
 There are     6 symmetry adapted cartesian basis functions of B1  symmetry.
 There are     6 symmetry adapted cartesian basis functions of B2  symmetry.
 There are    20 symmetry adapted basis functions of A1  symmetry.
 There are     2 symmetry adapted basis functions of A2  symmetry.
 There are     6 symmetry adapted basis functions of B1  symmetry.
 There are     6 symmetry adapted basis functions of B2  symmetry.
    34 basis functions,    64 primitive gaussians,    34 cartesian basis functions
     7 alpha electrons        7 beta electrons
       nuclear repulsion energy        24.7104761495 Hartrees.
 NAtoms=    4 NActive=    4 NUniq=    4 SFac= 1.00D+00 NAtFMM=   60 NAOKFM=F Big=F
 Integral buffers will be    131072 words long.
 Raffenetti 2 integral format.
 Two-electron integral symmetry is turned on.
 One-electron integrals computed using PRISM.
 NBasis=    34 RedAO= T EigKep=  2.06D-03  NBF=    20     2     6     6
 NBsUse=    34 1.00D-06 EigRej= -1.00D+00 NBFU=    20     2     6     6
 Initial guess from the checkpoint file:  "/home/mateus/github/db_singletoxygen/chk/molecule_2.chk"
 B after Tr=     0.000000    0.000000    0.000000
         Rot=    1.000000    0.000000    0.000000    0.000000 Ang=   0.00 deg.
 Initial guess orbital symmetries:
       Occupied  (SG) (SG) (SG) (SG) (SG) (PI) (PI)
       Virtual   (SG) (SG) (SG) (SG) (SG) (DLTA) (SG) (DLTA) (SG)
                 (SG) (SG) (SG) (SG) (SG) (SG) (DLTA) (DLTA) (PI)
                 (PI) (PI) (PI) (PI) (PI) (PI) (PI) (PI) (PI)
 Keep R1 ints in memory in symmetry-blocked form, NReq=1062452.
 Requested convergence on RMS density matrix=1.00D-08 within 128 cycles.
 Requested convergence on MAX density matrix=1.00D-06.
 Requested convergence on             energy=1.00D-06.
 No special actions if energy rises.
 SCF Done:  E(RB3LYP) =  -77.3256457625     A.U. after    7 cycles
            NFock=  7  Conv=0.23D-08     -V/T= 2.0103
 Calling FoFJK, ICntrl=      2127 FMM=F ISym2X=1 I1Cent= 0 IOpClX= 0 NMat=1 NMatS=1 NMatT=0.
 ***** Axes restored to original set *****
 -------------------------------------------------------------------
 Center     Atomic                   Forces (Hartrees/Bohr)
 Number     Number              X              Y              Z
 -------------------------------------------------------------------
      1        6           0.000954850    0.000000000    0.000000000
      2        6          -0.000955679    0.000000000    0.000000000
      3        1           0.000017332    0.000000000    0.000000000
      4        1          -0.000016503    0.000000000    0.000000000
 -------------------------------------------------------------------
 Cartesian Forces:  Max     0.000955679 RMS     0.000390046

 GradGradGradGradGradGradGradGradGradGradGradGradGradGradGradGradGradGrad
 Berny optimization.
 Using GEDIIS/GDIIS optimizer.
 FormGI is forming the generalized inverse of G from B-inverse, IUseBI=4.
 Internal  Forces:  Max     0.000972182 RMS     0.000367562
 Search for a local minimum.
 Step number   2 out of a maximum of   20
 All quantities printed in internal units (Hartrees-Bohrs-Radians)
 Mixed Optimization -- En-DIIS/RFO-DIIS
 Update second derivatives using D2CorX and points    1    2
 DE= -4.50D-05 DEPred=-5.00D-05 R= 9.00D-01
 TightC=F SS=  1.41D+00  RLast= 9.95D-03 DXNew= 5.0454D-01 2.9850D-02
 Trust test= 9.00D-01 RLast= 9.95D-03 DXMaxT set to 3.00D-01
 The second derivative matrix:
                          R1        R2        R3        A1        A2
           R1           1.14667
           R2           0.00185   0.37753
           R3           0.00177  -0.00013   0.37751
           A1           0.00000   0.00000   0.00000   0.00555
           A2           0.00000   0.00000   0.00000   0.00000   0.00555
           A3           0.00000   0.00000   0.00000   0.00000   0.00000
           A4           0.00000   0.00000   0.00000   0.00000   0.00000
                          A3        A4
           A3           0.00555
           A4           0.00000   0.00555
 ITU=  1  0
 Use linear search instead of GDIIS.
     Eigenvalues ---    0.00555   0.00555   0.00555   0.00555   0.37738
     Eigenvalues ---    0.37765   1.14668
 RFO step:  Lambda= 0.00000000D+00 EMin= 5.54817386D-03
 Quartic linear search produced a step of -0.08755.
 Iteration  1 RMS(Cart)=  0.00034233 RMS(Int)=  0.00000000
 Iteration  2 RMS(Cart)=  0.00000000 RMS(Int)=  0.00000000
 ClnCor:  largest displacement from symmetrization is 1.08D-13 for atom     1.
 Variable       Old X    -DE/DX   Delta X   Delta X   Delta X     New X
                                 (Linear)    (Quad)   (Total)
    R1        2.27792  -0.00097  -0.00085  -0.00001  -0.00086   2.27706
    R2        2.01572  -0.00002  -0.00014   0.00010  -0.00005   2.01567
    R3        2.01571  -0.00002  -0.00014   0.00010  -0.00005   2.01567
    A1        3.14159   0.00000   0.00000   0.00000   0.00000   3.14159
    A2        3.14159   0.00000   0.00000   0.00000   0.00000   3.14159
    A3        3.14159   0.00000   0.00000   0.00000   0.00000   3.14159
    A4        3.14159   0.00000   0.00000   0.00000   0.00000   3.14159
         Item               Value     Threshold  Converged?
 Maximum Force            0.000972     0.000450     NO 
 RMS     Force            0.000368     0.000300     NO 
 Maximum Displacement     0.000476     0.001800     YES
 RMS     Displacement     0.000342     0.001200     YES
 Predicted change in Energy=-4.126747D-07
 GradGradGradGradGradGradGradGradGradGradGradGradGradGradGradGradGradGrad

                          Input orientation:                          
 ---------------------------------------------------------------------
 Center     Atomic      Atomic             Coordinates (Angstroms)
 Number     Number       Type             X           Y           Z
 ---------------------------------------------------------------------
      1          6           0        1.067729    0.081870   -0.054430
      2          6           0        2.272696    0.081870   -0.054430
      3          1           0        0.001083    0.081870   -0.054430
      4          1           0        3.339342    0.081870   -0.054430
 ---------------------------------------------------------------------
                    Distance matrix (angstroms):
                    1          2          3          4
     1  C    0.000000
     2  C    1.204967   0.000000
     3  H    1.066646   2.271613   0.000000
     4  H    2.271613   1.066646   3.338258   0.000000
 Stoichiometry    C2H2
 Framework group  C*V[C*(HCCH)]
 Deg. of freedom     3
 Full point group                 C*V     NOp   4
 Largest Abelian subgroup         C2V     NOp   4
 Largest concise Abelian subgroup C1      NOp   1
                         Standard orientation:                         
 ---------------------------------------------------------------------
 Center     Atomic      Atomic             Coordinates (Angstroms)
 Number     Number       Type             X           Y           Z
 ---------------------------------------------------------------------
      1          6           0        0.000000    0.000000    0.602484
      2          6           0        0.000000    0.000000   -0.602484
      3          1           0        0.000000    0.000000    1.669129
      4          1           0        0.000000    0.000000   -1.669129
 ---------------------------------------------------------------------
 Rotational constants (GHZ):      0.0000000     35.2739502     35.2739502
 Standard basis: 6-31G(d) (6D, 7F)
 There are    20 symmetry adapted cartesian basis functions of A1  symmetry.
 There are     2 symmetry adapted cartesian basis functions of A2  symmetry.
 There are     6 symmetry adapted cartesian basis functions of B1  symmetry.
 There are     6 symmetry adapted cartesian basis functions of B2  symmetry.
 There are    20 symmetry adapted basis functions of A1  symmetry.
 There are     2 symmetry adapted basis functions of A2  symmetry.
 There are     6 symmetry adapted basis functions of B1  symmetry.
 There are     6 symmetry adapted basis functions of B2  symmetry.
    34 basis functions,    64 primitive gaussians,    34 cartesian basis functions
     7 alpha electrons        7 beta electrons
       nuclear repulsion energy        24.7171827517 Hartrees.
 NAtoms=    4 NActive=    4 NUniq=    4 SFac= 1.00D+00 NAtFMM=   60 NAOKFM=F Big=F
 Integral buffers will be    131072 words long.
 Raffenetti 2 integral format.
 Two-electron integral symmetry is turned on.
 One-electron integrals computed using PRISM.
 NBasis=    34 RedAO= T EigKep=  2.05D-03  NBF=    20     2     6     6
 NBsUse=    34 1.00D-06 EigRej= -1.00D+00 NBFU=    20     2     6     6
 Initial guess from the checkpoint file:  "/home/mateus/github/db_singletoxygen/chk/molecule_2.chk"
 B after Tr=     0.000000    0.000000    0.000000
         Rot=    1.000000    0.000000    0.000000    0.000000 Ang=   0.00 deg.
 Initial guess orbital symmetries:
       Occupied  (SG) (SG) (SG) (SG) (SG) (PI) (PI)
       Virtual   (SG) (SG) (SG) (SG) (SG) (DLTA) (SG) (DLTA) (SG)
                 (SG) (SG) (SG) (SG) (SG) (SG) (DLTA) (DLTA) (PI)
                 (PI) (PI) (PI) (PI) (PI) (PI) (PI) (PI) (PI)
 Keep R1 ints in memory in symmetry-blocked form, NReq=1062452.
 Requested convergence on RMS density matrix=1.00D-08 within 128 cycles.
 Requested convergence on MAX density matrix=1.00D-06.
 Requested convergence on             energy=1.00D-06.
 No special actions if energy rises.
 SCF Done:  E(RB3LYP) =  -77.3256461806     A.U. after    6 cycles
            NFock=  6  Conv=0.59D-08     -V/T= 2.0103
 Calling FoFJK, ICntrl=      2127 FMM=F ISym2X=1 I1Cent= 0 IOpClX= 0 NMat=1 NMatS=1 NMatT=0.
 ***** Axes restored to original set *****
 -------------------------------------------------------------------
 Center     Atomic                   Forces (Hartrees/Bohr)
 Number     Number              X              Y              Z
 -------------------------------------------------------------------
      1        6          -0.000002590    0.000000000    0.000000000
      2        6           0.000002623    0.000000000    0.000000000
      3        1           0.000002007    0.000000000    0.000000000
      4        1          -0.000002039    0.000000000    0.000000000
 -------------------------------------------------------------------
 Cartesian Forces:  Max     0.000002623 RMS     0.000001347

 GradGradGradGradGradGradGradGradGradGradGradGradGradGradGradGradGradGrad
 Berny optimization.
 Using GEDIIS/GDIIS optimizer.
 FormGI is forming the generalized inverse of G from B-inverse, IUseBI=4.
 Internal  Forces:  Max     0.000002039 RMS     0.000001104
 Search for a local minimum.
 Step number   3 out of a maximum of   20
 All quantities printed in internal units (Hartrees-Bohrs-Radians)
 Mixed Optimization -- En-DIIS/RFO-DIIS
 Swapping is turned off.
 Update second derivatives using D2CorX and points    1    3
 DE= -4.18D-07 DEPred=-4.13D-07 R= 1.01D+00
 Trust test= 1.01D+00 RLast= 8.61D-04 DXMaxT set to 3.00D-01
 The second derivative matrix:
                          R1        R2        R3        A1        A2
           R1           1.14783
           R2           0.00230   0.37758
           R3           0.00221  -0.00008   0.37756
           A1           0.00000   0.00000   0.00000   0.00555
           A2           0.00000   0.00000   0.00000   0.00000   0.00555
           A3           0.00000   0.00000   0.00000   0.00000   0.00000
           A4           0.00000   0.00000   0.00000   0.00000   0.00000
                          A3        A4
           A3           0.00555
           A4           0.00000   0.00555
 ITU=  0  1  0
     Eigenvalues ---    0.00555   0.00555   0.00555   0.00555   0.37747
     Eigenvalues ---    0.37765   1.14784
 En-DIIS/RFO-DIIS IScMMF=        0 using points:     3    2
 RFO step:  Lambda= 0.00000000D+00.
 DidBck=F Rises=F RFO-DIIS coefs:    0.99957    0.00043
 Iteration  1 RMS(Cart)=  0.00000272 RMS(Int)=  0.00000000
 Iteration  2 RMS(Cart)=  0.00000000 RMS(Int)=  0.00000000
 ClnCor:  largest displacement from symmetrization is 1.01D-13 for atom     1.
 Variable       Old X    -DE/DX   Delta X   Delta X   Delta X     New X
                                 (Linear)    (Quad)   (Total)
    R1        2.27706   0.00000   0.00000   0.00000   0.00000   2.27706
    R2        2.01567   0.00000   0.00000  -0.00001  -0.00001   2.01566
    R3        2.01567   0.00000   0.00000  -0.00001  -0.00001   2.01566
    A1        3.14159   0.00000   0.00000   0.00000   0.00000   3.14159
    A2        3.14159   0.00000   0.00000   0.00000   0.00000   3.14159
    A3        3.14159   0.00000   0.00000   0.00000   0.00000   3.14159
    A4        3.14159   0.00000   0.00000   0.00000   0.00000   3.14159
         Item               Value     Threshold  Converged?
 Maximum Force            0.000002     0.000450     YES
 RMS     Force            0.000001     0.000300     YES
 Maximum Displacement     0.000005     0.001800     YES
 RMS     Displacement     0.000003     0.001200     YES
 Predicted change in Energy=-1.100345D-11
 Optimization completed.
    -- Stationary point found.
                           ----------------------------
                           !   Optimized Parameters   !
                           ! (Angstroms and Degrees)  !
 --------------------------                            --------------------------
 ! Name  Definition              Value          Derivative Info.                !
 --------------------------------------------------------------------------------
 ! R1    R(1,2)                  1.205          -DE/DX =    0.0                 !
 ! R2    R(1,3)                  1.0666         -DE/DX =    0.0                 !
 ! R3    R(2,4)                  1.0666         -DE/DX =    0.0                 !
 ! A1    L(2,1,3,-2,-1)        180.0            -DE/DX =    0.0                 !
 ! A2    L(1,2,4,-2,-1)        180.0            -DE/DX =    0.0                 !
 ! A3    L(2,1,3,-3,-2)        180.0            -DE/DX =    0.0                 !
 ! A4    L(1,2,4,-3,-2)        180.0            -DE/DX =    0.0                 !
 --------------------------------------------------------------------------------
 GradGradGradGradGradGradGradGradGradGradGradGradGradGradGradGradGradGrad

                          Input orientation:                          
 ---------------------------------------------------------------------
 Center     Atomic      Atomic             Coordinates (Angstroms)
 Number     Number       Type             X           Y           Z
 ---------------------------------------------------------------------
      1          6           0        1.067729    0.081870   -0.054430
      2          6           0        2.272696    0.081870   -0.054430
      3          1           0        0.001083    0.081870   -0.054430
      4          1           0        3.339342    0.081870   -0.054430
 ---------------------------------------------------------------------
                    Distance matrix (angstroms):
                    1          2          3          4
     1  C    0.000000
     2  C    1.204967   0.000000
     3  H    1.066646   2.271613   0.000000
     4  H    2.271613   1.066646   3.338258   0.000000
 Stoichiometry    C2H2
 Framework group  C*V[C*(HCCH)]
 Deg. of freedom     3
 Full point group                 C*V     NOp   4
 Largest Abelian subgroup         C2V     NOp   4
 Largest concise Abelian subgroup C1      NOp   1
                         Standard orientation:                         
 ---------------------------------------------------------------------
 Center     Atomic      Atomic             Coordinates (Angstroms)
 Number     Number       Type             X           Y           Z
 ---------------------------------------------------------------------
      1          6           0        0.000000    0.000000    0.602484
      2          6           0        0.000000    0.000000   -0.602484
      3          1           0        0.000000    0.000000    1.669129
      4          1           0        0.000000    0.000000   -1.669129
 ---------------------------------------------------------------------
 Rotational constants (GHZ):      0.0000000     35.2739502     35.2739502

 **********************************************************************

            Population analysis using the SCF density.

 **********************************************************************

 Orbital symmetries:
       Occupied  (SG) (SG) (SG) (SG) (SG) (PI) (PI)
       Virtual   (PI) (PI) (SG) (SG) (SG) (SG) (PI) (PI) (PI) (PI)
                 (SG) (SG) (SG) (SG) (SG) (PI) (PI) (DLTA) (DLTA)
                 (DLTA) (DLTA) (SG) (PI) (PI) (SG) (SG) (SG)
 The electronic state is 1-SG.
 Alpha  occ. eigenvalues --  -10.19217 -10.18976  -0.74262  -0.56539  -0.49158
 Alpha  occ. eigenvalues --   -0.28193  -0.28193
 Alpha virt. eigenvalues --    0.05243   0.05243   0.10558   0.14883   0.42673
 Alpha virt. eigenvalues --    0.47082   0.53292   0.53292   0.65425   0.65425
 Alpha virt. eigenvalues --    0.74675   0.82440   1.02846   1.21767   1.50514
 Alpha virt. eigenvalues --    1.50644   1.50644   1.54918   1.54918   1.94365
 Alpha virt. eigenvalues --    1.94365   2.43195   2.48720   2.48720   3.19108
 Alpha virt. eigenvalues --    4.13473   4.32924
          Condensed to atoms (all electrons):
               1          2          3          4
     1  C    4.878276   0.984331   0.357836  -0.032130
     2  C    0.984331   4.878276  -0.032130   0.357836
     3  H    0.357836  -0.032130   0.484017   0.001965
     4  H   -0.032130   0.357836   0.001965   0.484017
 Mulliken charges:
               1
     1  C   -0.188312
     2  C   -0.188312
     3  H    0.188312
     4  H    0.188312
 Sum of Mulliken charges =   0.00000
 Mulliken charges with hydrogens summed into heavy atoms:
               1
     1  C    0.000000
     2  C    0.000000
 Electronic spatial extent (au):  <R**2>=             59.8479
 Charge=              0.0000 electrons
 Dipole moment (field-independent basis, Debye):
    X=              0.0000    Y=              0.0000    Z=              0.0000  Tot=              0.0000
 Quadrupole moment (field-independent basis, Debye-Ang):
   XX=            -13.0251   YY=            -13.0251   ZZ=             -6.7619
   XY=              0.0000   XZ=              0.0000   YZ=              0.0000
 Traceless Quadrupole moment (field-independent basis, Debye-Ang):
   XX=             -2.0877   YY=             -2.0877   ZZ=              4.1755
   XY=              0.0000   XZ=              0.0000   YZ=              0.0000
 Octapole moment (field-independent basis, Debye-Ang**2):
  XXX=              0.0000  YYY=              0.0000  ZZZ=              0.0000  XYY=              0.0000
  XXY=              0.0000  XXZ=              0.0000  XZZ=              0.0000  YZZ=              0.0000
  YYZ=              0.0000  XYZ=              0.0000
 Hexadecapole moment (field-independent basis, Debye-Ang**3):
 XXXX=            -13.3542 YYYY=            -13.3542 ZZZZ=            -37.9600 XXXY=              0.0000
 XXXZ=              0.0000 YYYX=              0.0000 YYYZ=              0.0000 ZZZX=              0.0000
 ZZZY=              0.0000 XXYY=             -4.4514 XXZZ=            -11.6083 YYZZ=            -11.6083
 XXYZ=              0.0000 YYXZ=              0.0000 ZZXY=              0.0000
 N-N= 2.471718275174D+01 E-N=-2.284351461801D+02  KE= 7.653696741079D+01
 Symmetry A1   KE= 7.210055522365D+01
 Symmetry A2   KE= 4.641890626161D-37
 Symmetry B1   KE= 2.218206093571D+00
 Symmetry B2   KE= 2.218206093571D+00
 1\1\GINC-ABCSIM\FOpt\RB3LYP\6-31G(d)\C2H2\MATEUS\01-Oct-2019\0\\#opt f
 req b3lyp/6-31g(d)\\molecule_2 C#C\\0,1\C,1.0677289567,0.08187,-0.0544
 3\C,2.2726960222,0.08187,-0.05443\H,0.0010834246,0.08187,-0.05443\H,3.
 3393415965,0.08187,-0.05443\\Version=ES64L-G09RevD.01\State=1-SG\HF=-7
 7.3256462\RMSD=5.911e-09\RMSF=1.347e-06\Dipole=0.,0.,0.\Quadrupole=3.1
 043488,-1.5521744,-1.5521744,0.,0.,0.\PG=C*V [C*(H1C1C1H1)]\\@


 Any fool can criticize, condemn, and complain -- and most do.
 -- Dale Carnegie
 Job cpu time:       0 days  0 hours  0 minutes 12.6 seconds.
 File lengths (MBytes):  RWF=      5 Int=      0 D2E=      0 Chk=      1 Scr=      1
 Normal termination of Gaussian 09 at Tue Oct  1 16:16:53 2019.
 Link1:  Proceeding to internal job step number  2.
 --------------------------------------------------------------------
 #N Geom=AllCheck Guess=TCheck SCRF=Check GenChk RB3LYP/6-31G(d) Freq
 --------------------------------------------------------------------
 1/10=4,29=7,30=1,38=1,40=1/1,3;
 2/12=2,40=1/2;
 3/5=1,6=6,7=1,11=2,14=-4,16=1,25=1,30=1,70=2,71=2,74=-5,116=1,140=1/1,2,3;
 4/5=101/1;
 5/5=2,98=1/2;
 8/6=4,10=90,11=11/1;
 11/6=1,8=1,9=11,15=111,16=1/1,2,10;
 10/6=1/2;
 6/7=2,8=2,9=2,10=2,18=1,28=1/1;
 7/8=1,10=1,25=1/1,2,3,16;
 1/10=4,30=1/3;
 99//99;
 Structure from the checkpoint file:  "/home/mateus/github/db_singletoxygen/chk/molecule_2.chk"
 --------------
 molecule_2 C#C
 --------------
 Charge =  0 Multiplicity = 1
 Redundant internal coordinates found in file.
 C,0,1.0677289567,0.08187,-0.05443
 C,0,2.2726960222,0.08187,-0.05443
 H,0,0.0010834246,0.08187,-0.05443
 H,0,3.3393415965,0.08187,-0.05443
 Recover connectivity data from disk.

 GradGradGradGradGradGradGradGradGradGradGradGradGradGradGradGradGradGrad
 Berny optimization.
 Initialization pass.
                           ----------------------------
                           !    Initial Parameters    !
                           ! (Angstroms and Degrees)  !
 --------------------------                            --------------------------
 ! Name  Definition              Value          Derivative Info.                !
 --------------------------------------------------------------------------------
 ! R1    R(1,2)                  1.205          calculate D2E/DX2 analytically  !
 ! R2    R(1,3)                  1.0666         calculate D2E/DX2 analytically  !
 ! R3    R(2,4)                  1.0666         calculate D2E/DX2 analytically  !
 ! A1    L(2,1,3,-2,-1)        180.0            calculate D2E/DX2 analytically  !
 ! A2    L(1,2,4,-2,-1)        180.0            calculate D2E/DX2 analytically  !
 ! A3    L(2,1,3,-3,-2)        180.0            calculate D2E/DX2 analytically  !
 ! A4    L(1,2,4,-3,-2)        180.0            calculate D2E/DX2 analytically  !
 --------------------------------------------------------------------------------
 Trust Radius=3.00D-01 FncErr=1.00D-07 GrdErr=1.00D-07
 Number of steps in this run=      2 maximum allowed number of steps=      2.
 GradGradGradGradGradGradGradGradGradGradGradGradGradGradGradGradGradGrad

                          Input orientation:                          
 ---------------------------------------------------------------------
 Center     Atomic      Atomic             Coordinates (Angstroms)
 Number     Number       Type             X           Y           Z
 ---------------------------------------------------------------------
      1          6           0        1.067729    0.081870   -0.054430
      2          6           0        2.272696    0.081870   -0.054430
      3          1           0        0.001083    0.081870   -0.054430
      4          1           0        3.339342    0.081870   -0.054430
 ---------------------------------------------------------------------
                    Distance matrix (angstroms):
                    1          2          3          4
     1  C    0.000000
     2  C    1.204967   0.000000
     3  H    1.066646   2.271613   0.000000
     4  H    2.271613   1.066646   3.338258   0.000000
 Stoichiometry    C2H2
 Framework group  C*V[C*(HCCH)]
 Deg. of freedom     3
 Full point group                 C*V     NOp   4
 Largest Abelian subgroup         C2V     NOp   4
 Largest concise Abelian subgroup C1      NOp   1
                         Standard orientation:                         
 ---------------------------------------------------------------------
 Center     Atomic      Atomic             Coordinates (Angstroms)
 Number     Number       Type             X           Y           Z
 ---------------------------------------------------------------------
      1          6           0        0.000000    0.000000    0.602484
      2          6           0        0.000000    0.000000   -0.602484
      3          1           0        0.000000    0.000000    1.669129
      4          1           0        0.000000    0.000000   -1.669129
 ---------------------------------------------------------------------
 Rotational constants (GHZ):      0.0000000     35.2739502     35.2739502
 Standard basis: 6-31G(d) (6D, 7F)
 There are    20 symmetry adapted cartesian basis functions of A1  symmetry.
 There are     2 symmetry adapted cartesian basis functions of A2  symmetry.
 There are     6 symmetry adapted cartesian basis functions of B1  symmetry.
 There are     6 symmetry adapted cartesian basis functions of B2  symmetry.
 There are    20 symmetry adapted basis functions of A1  symmetry.
 There are     2 symmetry adapted basis functions of A2  symmetry.
 There are     6 symmetry adapted basis functions of B1  symmetry.
 There are     6 symmetry adapted basis functions of B2  symmetry.
    34 basis functions,    64 primitive gaussians,    34 cartesian basis functions
     7 alpha electrons        7 beta electrons
       nuclear repulsion energy        24.7171827517 Hartrees.
 NAtoms=    4 NActive=    4 NUniq=    4 SFac= 1.00D+00 NAtFMM=   60 NAOKFM=F Big=F
 Integral buffers will be    131072 words long.
 Raffenetti 2 integral format.
 Two-electron integral symmetry is turned on.
 One-electron integrals computed using PRISM.
 NBasis=    34 RedAO= T EigKep=  2.05D-03  NBF=    20     2     6     6
 NBsUse=    34 1.00D-06 EigRej= -1.00D+00 NBFU=    20     2     6     6
 Initial guess from the checkpoint file:  "/home/mateus/github/db_singletoxygen/chk/molecule_2.chk"
 B after Tr=     0.000000    0.000000    0.000000
         Rot=    1.000000    0.000000    0.000000    0.000000 Ang=   0.00 deg.
 Initial guess orbital symmetries:
       Occupied  (SG) (SG) (SG) (SG) (SG) (PI) (PI)
       Virtual   (PI) (PI) (SG) (SG) (SG) (SG) (PI) (PI) (PI) (PI)
                 (SG) (SG) (SG) (SG) (SG) (PI) (PI) (DLTA) (DLTA)
                 (DLTA) (DLTA) (SG) (PI) (PI) (SG) (SG) (SG)
 Keep R1 ints in memory in symmetry-blocked form, NReq=1062452.
 Requested convergence on RMS density matrix=1.00D-08 within 128 cycles.
 Requested convergence on MAX density matrix=1.00D-06.
 Requested convergence on             energy=1.00D-06.
 No special actions if energy rises.
 SCF Done:  E(RB3LYP) =  -77.3256461806     A.U. after    1 cycles
            NFock=  1  Conv=0.28D-09     -V/T= 2.0103
 DoSCS=F DFT=T ScalE2(SS,OS)=  1.000000  1.000000
 Range of M.O.s used for correlation:     1    34
 NBasis=    34 NAE=     7 NBE=     7 NFC=     0 NFV=     0
 NROrb=     34 NOA=     7 NOB=     7 NVA=    27 NVB=    27

 **** Warning!!: The largest alpha MO coefficient is  0.14620138D+02

 Symmetrizing basis deriv contribution to polar:
 IMax=3 JMax=2 DiffMx= 0.00D+00
 G2DrvN: will do     5 centers at a time, making    1 passes.
 Calling FoFCou, ICntrl=  3107 FMM=F I1Cent=   0 AccDes= 0.00D+00.
 End of G2Drv F.D. properties file   721 does not exist.
 End of G2Drv F.D. properties file   722 does not exist.
 End of G2Drv F.D. properties file   788 does not exist.
          IDoAtm=1111
          Differentiating once with respect to electric field.
                with respect to dipole field.
          Differentiating once with respect to nuclear coordinates.
 Keep R1 ints in memory in symmetry-blocked form, NReq=1039686.
          There are    15 degrees of freedom in the 1st order CPHF.  IDoFFX=6 NUNeed=     3.
     12 vectors produced by pass  0 Test12= 1.26D-15 6.67D-09 XBig12= 3.33D+01 3.78D+00.
 AX will form    12 AO Fock derivatives at one time.
     12 vectors produced by pass  1 Test12= 1.26D-15 6.67D-09 XBig12= 1.01D+01 1.50D+00.
     12 vectors produced by pass  2 Test12= 1.26D-15 6.67D-09 XBig12= 2.01D-01 2.13D-01.
     12 vectors produced by pass  3 Test12= 1.26D-15 6.67D-09 XBig12= 5.13D-05 2.76D-03.
     12 vectors produced by pass  4 Test12= 1.26D-15 6.67D-09 XBig12= 4.87D-08 8.06D-05.
      4 vectors produced by pass  5 Test12= 1.26D-15 6.67D-09 XBig12= 5.27D-11 3.06D-06.
      1 vectors produced by pass  6 Test12= 1.26D-15 6.67D-09 XBig12= 2.12D-14 5.84D-08.
 InvSVY:  IOpt=1 It=  1 EMax= 6.66D-16
 Solved reduced A of dimension    65 with    12 vectors.
 Isotropic polarizability for W=    0.000000       14.52 Bohr**3.
 End of Minotr F.D. properties file   721 does not exist.
 End of Minotr F.D. properties file   722 does not exist.
 End of Minotr F.D. properties file   788 does not exist.

 **********************************************************************

            Population analysis using the SCF density.

 **********************************************************************

 Orbital symmetries:
       Occupied  (SG) (SG) (SG) (SG) (SG) (PI) (PI)
       Virtual   (PI) (PI) (SG) (SG) (SG) (SG) (PI) (PI) (PI) (PI)
                 (SG) (SG) (SG) (SG) (SG) (PI) (PI) (DLTA) (DLTA)
                 (DLTA) (DLTA) (SG) (PI) (PI) (SG) (SG) (SG)
 The electronic state is 1-SG.
 Alpha  occ. eigenvalues --  -10.19217 -10.18976  -0.74262  -0.56539  -0.49158
 Alpha  occ. eigenvalues --   -0.28193  -0.28193
 Alpha virt. eigenvalues --    0.05243   0.05243   0.10558   0.14883   0.42673
 Alpha virt. eigenvalues --    0.47082   0.53292   0.53292   0.65425   0.65425
 Alpha virt. eigenvalues --    0.74675   0.82440   1.02846   1.21767   1.50514
 Alpha virt. eigenvalues --    1.50644   1.50644   1.54918   1.54918   1.94365
 Alpha virt. eigenvalues --    1.94365   2.43195   2.48720   2.48720   3.19108
 Alpha virt. eigenvalues --    4.13473   4.32924
          Condensed to atoms (all electrons):
               1          2          3          4
     1  C    4.878276   0.984331   0.357836  -0.032130
     2  C    0.984331   4.878276  -0.032130   0.357836
     3  H    0.357836  -0.032130   0.484017   0.001965
     4  H   -0.032130   0.357836   0.001965   0.484017
 Mulliken charges:
               1
     1  C   -0.188312
     2  C   -0.188312
     3  H    0.188312
     4  H    0.188312
 Sum of Mulliken charges =   0.00000
 Mulliken charges with hydrogens summed into heavy atoms:
               1
     1  C    0.000000
     2  C    0.000000
 APT charges:
               1
     1  C   -0.194727
     2  C   -0.194727
     3  H    0.194727
     4  H    0.194727
 Sum of APT charges =   0.00000
 APT charges with hydrogens summed into heavy atoms:
               1
     1  C    0.000000
     2  C    0.000000
 Electronic spatial extent (au):  <R**2>=             59.8479
 Charge=              0.0000 electrons
 Dipole moment (field-independent basis, Debye):
    X=              0.0000    Y=              0.0000    Z=              0.0000  Tot=              0.0000
 Quadrupole moment (field-independent basis, Debye-Ang):
   XX=            -13.0251   YY=            -13.0251   ZZ=             -6.7619
   XY=              0.0000   XZ=              0.0000   YZ=              0.0000
 Traceless Quadrupole moment (field-independent basis, Debye-Ang):
   XX=             -2.0877   YY=             -2.0877   ZZ=              4.1755
   XY=              0.0000   XZ=              0.0000   YZ=              0.0000
 Octapole moment (field-independent basis, Debye-Ang**2):
  XXX=              0.0000  YYY=              0.0000  ZZZ=              0.0000  XYY=              0.0000
  XXY=              0.0000  XXZ=              0.0000  XZZ=              0.0000  YZZ=              0.0000
  YYZ=              0.0000  XYZ=              0.0000
 Hexadecapole moment (field-independent basis, Debye-Ang**3):
 XXXX=            -13.3542 YYYY=            -13.3542 ZZZZ=            -37.9600 XXXY=              0.0000
 XXXZ=              0.0000 YYYX=              0.0000 YYYZ=              0.0000 ZZZX=              0.0000
 ZZZY=              0.0000 XXYY=             -4.4514 XXZZ=            -11.6083 YYZZ=            -11.6083
 XXYZ=              0.0000 YYXZ=              0.0000 ZZXY=              0.0000
 N-N= 2.471718275174D+01 E-N=-2.284351460960D+02  KE= 7.653696736831D+01
 Symmetry A1   KE= 7.210055519342D+01
 Symmetry A2   KE= 4.641890633465D-37
 Symmetry B1   KE= 2.218206087446D+00
 Symmetry B2   KE= 2.218206087445D+00
  Exact polarizability:   7.863   0.000   7.863   0.000   0.000  27.848
 Approx polarizability:   9.711   0.000   9.711   0.000   0.000  50.810
 Calling FoFJK, ICntrl=    100127 FMM=F ISym2X=1 I1Cent= 0 IOpClX= 0 NMat=1 NMatS=1 NMatT=0.
 Full mass-weighted force constant matrix:
 Low frequencies ---   -8.9852   -8.9852   -0.0006    0.0008    0.0011  534.8903
 Low frequencies ---  534.8903  775.2268  775.2268
 Diagonal vibrational polarizability:
        3.6297767       3.6297767       0.1737746
 Harmonic frequencies (cm**-1), IR intensities (KM/Mole), Raman scattering
 activities (A**4/AMU), depolarization ratios for plane and unpolarized
 incident light, reduced masses (AMU), force constants (mDyne/A),
 and normal coordinates:
                      1                      2                      3
                     PI                     PI                     PI
 Frequencies --    534.8903               534.8903               775.2268
 Red. masses --      1.5724                 1.5724                 1.0848
 Frc consts  --      0.2651                 0.2651                 0.3841
 IR Inten    --      0.0000                 0.0000                81.0596
  Atom  AN      X      Y      Z        X      Y      Z        X      Y      Z
     1   6    -0.07   0.15   0.00     0.15   0.07   0.00    -0.03   0.05   0.00
     2   6     0.07  -0.15   0.00    -0.15  -0.07   0.00    -0.03   0.05   0.00
     3   1     0.29  -0.63   0.00    -0.63  -0.29   0.00     0.36  -0.60   0.00
     4   1    -0.29   0.63   0.00     0.63   0.29   0.00     0.36  -0.60   0.00
                      4                      5                      6
                     PI                     SG                     SG
 Frequencies --    775.2268              2088.1579              3441.5560
 Red. masses --      1.0848                 3.8255                 1.0848
 Frc consts  --      0.3841                 9.8279                 7.5703
 IR Inten    --     81.0596                 0.0000                76.4826
  Atom  AN      X      Y      Z        X      Y      Z        X      Y      Z
     1   6     0.05   0.03   0.00     0.00   0.00   0.36     0.00   0.00   0.06
     2   6     0.05   0.03   0.00     0.00   0.00  -0.36     0.00   0.00   0.06
     3   1    -0.60  -0.36   0.00     0.00   0.00   0.61     0.00   0.00  -0.70
     4   1    -0.60  -0.36   0.00     0.00   0.00  -0.61     0.00   0.00  -0.70
                      7
                     SG
 Frequencies --   3541.7315
 Red. masses --      1.2283
 Frc consts  --      9.0776
 IR Inten    --      0.0000
  Atom  AN      X      Y      Z
     1   6     0.00   0.00  -0.10
     2   6     0.00   0.00   0.10
     3   1     0.00   0.00   0.70
     4   1     0.00   0.00  -0.70

 -------------------
 - Thermochemistry -
 -------------------
 Temperature   298.150 Kelvin.  Pressure   1.00000 Atm.
 Atom     1 has atomic number  6 and mass  12.00000
 Atom     2 has atomic number  6 and mass  12.00000
 Atom     3 has atomic number  1 and mass   1.00783
 Atom     4 has atomic number  1 and mass   1.00783
 Molecular mass:    26.01565 amu.
 Principal axes and moments of inertia in atomic units:
                           1         2         3
     Eigenvalues --     0.00000  51.16357  51.16357
           X            0.00000   0.00000   1.00000
           Y            0.00000   1.00000   0.00000
           Z            1.00000   0.00000   0.00000
 This molecule is a prolate symmetric top.
 Rotational symmetry number  1.
 Rotational temperature (Kelvin)      1.69288
 Rotational constant (GHZ):          35.273950
 Zero-point vibrational energy      69931.8 (Joules/Mol)
                                   16.71409 (Kcal/Mol)
 Warning -- explicit consideration of   2 degrees of freedom as
           vibrations may cause significant error
 Vibrational temperatures:    769.59   769.59  1115.38  1115.38  3004.39
          (Kelvin)           4951.63  5095.76
 
 Zero-point correction=                           0.026636 (Hartree/Particle)
 Thermal correction to Energy=                    0.029567
 Thermal correction to Enthalpy=                  0.030511
 Thermal correction to Gibbs Free Energy=         0.006955
 Sum of electronic and zero-point Energies=            -77.299011
 Sum of electronic and thermal Energies=               -77.296079
 Sum of electronic and thermal Enthalpies=             -77.295135
 Sum of electronic and thermal Free Energies=          -77.318691
 
                     E (Thermal)             CV                S
                      KCal/Mol        Cal/Mol-Kelvin    Cal/Mol-Kelvin
 Total                   18.554              8.707             49.578
 Electronic               0.000              0.000              0.000
 Translational            0.889              2.981             35.704
 Rotational               0.592              1.987             12.263
 Vibrational             17.073              3.739              1.611
 Vibration     1          0.890              1.173              0.576
 Vibration     2          0.890              1.173              0.576
                       Q            Log10(Q)             Ln(Q)
 Total Bot       0.632194D-03         -3.199150         -7.366314
 Total V=0       0.112811D+10          9.052352         20.843812
 Vib (Bot)       0.688232D-12        -12.162265        -28.004651
 Vib (Bot)    1  0.297630D+00         -0.526323         -1.211904
 Vib (Bot)    2  0.297630D+00         -0.526323         -1.211904
 Vib (V=0)       0.122811D+01          0.089237          0.205475
 Vib (V=0)    1  0.108188D+01          0.034179          0.078700
 Vib (V=0)    2  0.108188D+01          0.034179          0.078700
 Electronic      0.100000D+01          0.000000          0.000000
 Translational   0.521564D+07          6.717307         15.467172
 Rotational      0.176120D+03          2.245808          5.171165
 ***** Axes restored to original set *****
 -------------------------------------------------------------------
 Center     Atomic                   Forces (Hartrees/Bohr)
 Number     Number              X              Y              Z
 -------------------------------------------------------------------
      1        6          -0.000002588    0.000000000    0.000000000
      2        6           0.000002622    0.000000000    0.000000000
      3        1           0.000002008    0.000000000    0.000000000
      4        1          -0.000002042    0.000000000    0.000000000
 -------------------------------------------------------------------
 Cartesian Forces:  Max     0.000002622 RMS     0.000001347
 FormGI is forming the generalized inverse of G from B-inverse, IUseBI=4.

 GradGradGradGradGradGradGradGradGradGradGradGradGradGradGradGradGradGrad
 Berny optimization.
 Internal  Forces:  Max     0.000002042 RMS     0.000001105
 Search for a local minimum.
 Step number   1 out of a maximum of    2
 All quantities printed in internal units (Hartrees-Bohrs-Radians)
 Second derivative matrix not updated -- analytic derivatives used.
 The second derivative matrix:
                          R1        R2        R3        A1        A2
           R1           1.13529
           R2          -0.00510   0.41700
           R3          -0.00510   0.00027   0.41700
           A1           0.00000   0.00000   0.00000   0.05642
           A2           0.00000   0.00000   0.00000  -0.02948   0.05642
           A3           0.00000   0.00000   0.00000   0.00000   0.00000
           A4           0.00000   0.00000   0.00000   0.00000   0.00000
                          A3        A4
           A3           0.05642
           A4          -0.02948   0.05642
 ITU=  0
     Eigenvalues ---    0.02694   0.02694   0.08591   0.08591   0.41674
     Eigenvalues ---    0.41720   1.13537
 Angle between quadratic step and forces=   7.54 degrees.
 Linear search not attempted -- first point.
 Iteration  1 RMS(Cart)=  0.00000247 RMS(Int)=  0.00000000
 Iteration  2 RMS(Cart)=  0.00000000 RMS(Int)=  0.00000001
 ClnCor:  largest displacement from symmetrization is 8.20D-14 for atom     1.
 Variable       Old X    -DE/DX   Delta X   Delta X   Delta X     New X
                                 (Linear)    (Quad)   (Total)
    R1        2.27706   0.00000   0.00000   0.00000   0.00000   2.27706
    R2        2.01567   0.00000   0.00000   0.00000   0.00000   2.01566
    R3        2.01567   0.00000   0.00000   0.00000   0.00000   2.01566
    A1        3.14159   0.00000   0.00000   0.00000   0.00000   3.14159
    A2        3.14159   0.00000   0.00000   0.00000   0.00000   3.14159
    A3        3.14159   0.00000   0.00000   0.00000   0.00000   3.14159
    A4        3.14159   0.00000   0.00000   0.00000   0.00000   3.14159
         Item               Value     Threshold  Converged?
 Maximum Force            0.000002     0.000450     YES
 RMS     Force            0.000001     0.000300     YES
 Maximum Displacement     0.000005     0.001800     YES
 RMS     Displacement     0.000002     0.001200     YES
 Predicted change in Energy=-9.954030D-12
 Optimization completed.
    -- Stationary point found.
                           ----------------------------
                           !   Optimized Parameters   !
                           ! (Angstroms and Degrees)  !
 --------------------------                            --------------------------
 ! Name  Definition              Value          Derivative Info.                !
 --------------------------------------------------------------------------------
 ! R1    R(1,2)                  1.205          -DE/DX =    0.0                 !
 ! R2    R(1,3)                  1.0666         -DE/DX =    0.0                 !
 ! R3    R(2,4)                  1.0666         -DE/DX =    0.0                 !
 ! A1    L(2,1,3,-2,-1)        180.0            -DE/DX =    0.0                 !
 ! A2    L(1,2,4,-2,-1)        180.0            -DE/DX =    0.0                 !
 ! A3    L(2,1,3,-3,-2)        180.0            -DE/DX =    0.0                 !
 ! A4    L(1,2,4,-3,-2)        180.0            -DE/DX =    0.0                 !
 --------------------------------------------------------------------------------
 GradGradGradGradGradGradGradGradGradGradGradGradGradGradGradGradGradGrad

 1\1\GINC-ABCSIM\Freq\RB3LYP\6-31G(d)\C2H2\MATEUS\01-Oct-2019\0\\#N Geo
 m=AllCheck Guess=TCheck SCRF=Check GenChk RB3LYP/6-31G(d) Freq\\molecu
 le_2 C#C\\0,1\C,1.0677289567,0.08187,-0.05443\C,2.2726960222,0.08187,-
 0.05443\H,0.0010834246,0.08187,-0.05443\H,3.3393415965,0.08187,-0.0544
 3\\Version=ES64L-G09RevD.01\State=1-SG\HF=-77.3256462\RMSD=2.758e-10\R
 MSF=1.347e-06\ZeroPoint=0.0266356\Thermal=0.0295673\Dipole=0.,0.,0.\Di
 poleDeriv=-0.1909729,0.,0.,0.,-0.196604,0.,0.,0.,-0.196604,-0.1909728,
 0.,0.,0.,-0.196604,0.,0.,0.,-0.196604,0.1909728,0.,0.,0.,0.196604,0.,0
 .,0.,0.196604,0.1909728,0.,0.,0.,0.196604,0.,0.,0.,0.196604\Polar=27.8
 479758,0.,7.8631944,0.,0.,7.8631944\PG=C*V [C*(H1C1C1H1)]\NImag=0\\1.5
 6249422,0.,0.03601381,0.,0.,0.03601381,-1.14575643,0.,0.,1.56249412,0.
 ,-0.01486867,0.,0.,0.03601383,0.,0.,-0.01486867,0.,0.,0.03601383,-0.42
 210135,0.,0.,0.00536356,0.,0.,0.41700343,0.,-0.01976543,0.,0.,-0.00137
 971,0.,0.,0.01389035,0.,0.,-0.01976543,0.,0.,-0.00137971,0.,0.,0.01389
 035,0.00536356,0.,0.,-0.42210125,0.,0.,-0.00026565,0.,0.,0.41700334,0.
 ,-0.00137972,0.,0.,-0.01976544,0.,0.,0.00725479,0.,0.,0.01389037,0.,0.
 ,-0.00137972,0.,0.,-0.01976544,0.,0.,0.00725479,0.,0.,0.01389037\\0.00
 000259,0.,0.,-0.00000262,0.,0.,-0.00000201,0.,0.,0.00000204,0.,0.\\\@


 THE MOLECULE ALSO HAS A BODY.  WHEN THIS BODY IS HIT, THE MOLECULE
 FEELS HURT ALL OVER -- A. KITAIGORODSKI
 Job cpu time:       0 days  0 hours  0 minutes  9.8 seconds.
 File lengths (MBytes):  RWF=      5 Int=      0 D2E=      0 Chk=      1 Scr=      1
 Normal termination of Gaussian 09 at Tue Oct  1 16:16:54 2019.
