 Entering Gaussian System, Link 0=g09
 Initial command:
 /opt/g09/l1.exe /opt/g09/Gau-5191.inp -scrdir=/opt/g09/
 Entering Link 1 = /opt/g09/l1.exe PID=      5193.
  
 Copyright (c) 1988,1990,1992,1993,1995,1998,2003,2009,2011,
            Gaussian, Inc.  All Rights Reserved.
  
 This is part of the Gaussian(R) 09 program.  It is based on
 the Gaussian(R) 03 system (copyright 2003, Gaussian, Inc.),
 the Gaussian(R) 98 system (copyright 1998, Gaussian, Inc.),
 the Gaussian(R) 94 system (copyright 1995, Gaussian, Inc.),
 the Gaussian 92(TM) system (copyright 1992, Gaussian, Inc.),
 the Gaussian 90(TM) system (copyright 1990, Gaussian, Inc.),
 the Gaussian 88(TM) system (copyright 1988, Gaussian, Inc.),
 the Gaussian 86(TM) system (copyright 1986, Carnegie Mellon
 University), and the Gaussian 82(TM) system (copyright 1983,
 Carnegie Mellon University). Gaussian is a federally registered
 trademark of Gaussian, Inc.
  
 This software contains proprietary and confidential information,
 including trade secrets, belonging to Gaussian, Inc.
  
 This software is provided under written license and may be
 used, copied, transmitted, or stored only in accord with that
 written license.
  
 The following legend is applicable only to US Government
 contracts under FAR:
  
                    RESTRICTED RIGHTS LEGEND
  
 Use, reproduction and disclosure by the US Government is
 subject to restrictions as set forth in subparagraphs (a)
 and (c) of the Commercial Computer Software - Restricted
 Rights clause in FAR 52.227-19.
  
 Gaussian, Inc.
 340 Quinnipiac St., Bldg. 40, Wallingford CT 06492
  
  
 ---------------------------------------------------------------
 Warning -- This program may not be used in any manner that
 competes with the business of Gaussian, Inc. or will provide
 assistance to any competitor of Gaussian, Inc.  The licensee
 of this program is prohibited from giving any competitor of
 Gaussian, Inc. access to this program.  By using this program,
 the user acknowledges that Gaussian, Inc. is engaged in the
 business of creating and licensing software in the field of
 computational chemistry and represents and warrants to the
 licensee that it is not a competitor of Gaussian, Inc. and that
 it will not use this program in any manner prohibited above.
 ---------------------------------------------------------------
  

 Cite this work as:
 Gaussian 09, Revision C.01,
 M. J. Frisch, G. W. Trucks, H. B. Schlegel, G. E. Scuseria, 
 M. A. Robb, J. R. Cheeseman, G. Scalmani, V. Barone, B. Mennucci, 
 G. A. Petersson, H. Nakatsuji, M. Caricato, X. Li, H. P. Hratchian, 
 A. F. Izmaylov, J. Bloino, G. Zheng, J. L. Sonnenberg, M. Hada, 
 M. Ehara, K. Toyota, R. Fukuda, J. Hasegawa, M. Ishida, T. Nakajima, 
 Y. Honda, O. Kitao, H. Nakai, T. Vreven, J. A. Montgomery, Jr., 
 J. E. Peralta, F. Ogliaro, M. Bearpark, J. J. Heyd, E. Brothers, 
 K. N. Kudin, V. N. Staroverov, T. Keith, R. Kobayashi, J. Normand, 
 K. Raghavachari, A. Rendell, J. C. Burant, S. S. Iyengar, J. Tomasi, 
 M. Cossi, N. Rega, J. M. Millam, M. Klene, J. E. Knox, J. B. Cross, 
 V. Bakken, C. Adamo, J. Jaramillo, R. Gomperts, R. E. Stratmann, 
 O. Yazyev, A. J. Austin, R. Cammi, C. Pomelli, J. W. Ochterski, 
 R. L. Martin, K. Morokuma, V. G. Zakrzewski, G. A. Voth, 
 P. Salvador, J. J. Dannenberg, S. Dapprich, A. D. Daniels, 
 O. Farkas, J. B. Foresman, J. V. Ortiz, J. Cioslowski, 
 and D. J. Fox, Gaussian, Inc., Wallingford CT, 2010.
 
 ******************************************
 Gaussian 09:  EM64L-G09RevC.01 23-Sep-2011
                10-Jul-2019 
 ******************************************
 %nprocs=8
 Will use up to    8 processors via shared memory.
 %mem=16GB
 -------------------------
 #opt freq blyp/6-31g(d,p)
 -------------------------
 1/14=-1,18=20,19=15,26=3,38=1/1,3;
 2/9=110,12=2,17=6,18=5,40=1/2;
 3/5=1,6=6,7=101,11=2,16=1,25=1,30=1,71=1,74=402/1,2,3;
 4//1;
 5/5=2,38=5/2;
 6/7=2,8=2,9=2,10=2,28=1/1;
 7//1,2,3,16;
 1/14=-1,18=20,19=15/3(2);
 2/9=110/2;
 99//99;
 2/9=110/2;
 3/5=1,6=6,7=101,11=2,16=1,25=1,30=1,71=1,74=402/1,2,3;
 4/5=5,16=3/1;
 5/5=2,38=5/2;
 7//1,2,3,16;
 1/14=-1,18=20,19=15/3(-5);
 2/9=110/2;
 6/7=2,8=2,9=2,10=2,19=2,28=1/1;
 99/9=1/99;
 -----------------------------------------------
 molecule_/home/mateus/github/db_singletoxygen 2
 -----------------------------------------------
 Charge =  0 Multiplicity = 1
 Symbolic Z-Matrix:
 C                     1.04059   0.08666  -0.02904 
 C                     2.34444   0.08666  -0.02904 
 C                     3.86444   0.08666  -0.02904 
 C                     4.53628   0.95756  -0.78796 
 H                    -0.02443   0.08738  -0.02967 
 H                     4.36161  -0.64021   0.60438 
 H                     4.0206    1.67778  -1.41559 
 H                     5.62054   0.9664   -0.79567 
 

 GradGradGradGradGradGradGradGradGradGradGradGradGradGradGradGradGradGrad
 Berny optimization.
 Initialization pass.
                           ----------------------------
                           !    Initial Parameters    !
                           ! (Angstroms and Degrees)  !
 --------------------------                            --------------------------
 ! Name  Definition              Value          Derivative Info.                !
 --------------------------------------------------------------------------------
 ! R1    R(1,2)                  1.3038         estimate D2E/DX2                !
 ! R2    R(1,5)                  1.065          estimate D2E/DX2                !
 ! R3    R(2,3)                  1.52           estimate D2E/DX2                !
 ! R4    R(3,4)                  1.3363         estimate D2E/DX2                !
 ! R5    R(3,6)                  1.0848         estimate D2E/DX2                !
 ! R6    R(4,7)                  1.0856         estimate D2E/DX2                !
 ! R7    R(4,8)                  1.0843         estimate D2E/DX2                !
 ! A1    A(2,3,4)              120.1819         estimate D2E/DX2                !
 ! A2    A(2,3,6)              117.2785         estimate D2E/DX2                !
 ! A3    A(4,3,6)              122.5396         estimate D2E/DX2                !
 ! A4    A(3,4,7)              121.458          estimate D2E/DX2                !
 ! A5    A(3,4,8)              120.8018         estimate D2E/DX2                !
 ! A6    A(7,4,8)              117.7403         estimate D2E/DX2                !
 ! A7    L(2,1,5,7,-1)         179.9485         estimate D2E/DX2                !
 ! A8    L(1,2,3,7,-1)         180.0            estimate D2E/DX2                !
 ! A9    L(2,1,5,7,-2)         179.9998         estimate D2E/DX2                !
 ! A10   L(1,2,3,7,-2)         180.0            estimate D2E/DX2                !
 ! D1    D(2,3,4,7)             -0.0007         estimate D2E/DX2                !
 ! D2    D(2,3,4,8)           -179.9997         estimate D2E/DX2                !
 ! D3    D(6,3,4,7)            179.9998         estimate D2E/DX2                !
 ! D4    D(6,3,4,8)              0.0008         estimate D2E/DX2                !
 --------------------------------------------------------------------------------
 Trust Radius=3.00D-01 FncErr=1.00D-07 GrdErr=1.00D-06
 Number of steps in this run=     31 maximum allowed number of steps=    100.
 GradGradGradGradGradGradGradGradGradGradGradGradGradGradGradGradGradGrad

                          Input orientation:                          
 ---------------------------------------------------------------------
 Center     Atomic      Atomic             Coordinates (Angstroms)
 Number     Number       Type             X           Y           Z
 ---------------------------------------------------------------------
      1          6           0        1.040590    0.086660   -0.029040
      2          6           0        2.344440    0.086660   -0.029040
      3          6           0        3.864440    0.086660   -0.029040
      4          6           0        4.536280    0.957560   -0.787960
      5          1           0       -0.024430    0.087380   -0.029670
      6          1           0        4.361610   -0.640210    0.604380
      7          1           0        4.020600    1.677780   -1.415590
      8          1           0        5.620540    0.966400   -0.795670
 ---------------------------------------------------------------------
                    Distance matrix (angstroms):
                    1          2          3          4          5
     1  C    0.000000
     2  C    1.303850   0.000000
     3  C    2.823850   1.520000   0.000000
     4  C    3.681613   2.477618   1.336337   0.000000
     5  H    1.065020   2.368870   3.888870   4.704497   0.000000
     6  H    3.458140   2.235741   1.084776   2.126497   4.490964
     7  H    3.651663   2.695125   2.116263   1.085616   4.562062
     8  H    4.726268   3.477714   2.108448   1.084323   5.764123
                    6          7          8
     6  H    0.000000
     7  H    3.093484   0.000000
     8  H    2.475124   1.857463   0.000000
 Stoichiometry    C4H4
 Framework group  C1[X(C4H4)]
 Deg. of freedom    18
 Full point group                 C1      NOp   1
 Largest Abelian subgroup         C1      NOp   1
 Largest concise Abelian subgroup C1      NOp   1
                         Standard orientation:                         
 ---------------------------------------------------------------------
 Center     Atomic      Atomic             Coordinates (Angstroms)
 Number     Number       Type             X           Y           Z
 ---------------------------------------------------------------------
      1          6           0       -2.003480   -0.178765   -0.000001
      2          6           0       -0.741429    0.148728    0.000000
      3          6           0        0.729843    0.530513    0.000002
      4          6           0        1.670295   -0.418880   -0.000002
      5          1           0       -3.034117   -0.447197    0.000001
      6          1           0        0.968908    1.588618   -0.000002
      7          1           0        1.411098   -1.473099    0.000005
      8          1           0        2.722742   -0.157895    0.000003
 ---------------------------------------------------------------------
 Rotational constants (GHZ):     45.5991659      4.4231808      4.0320650
 Standard basis: 6-31G(d,p) (6D, 7F)
 There are    80 symmetry adapted basis functions of A   symmetry.
 Integral buffers will be    131072 words long.
 Raffenetti 2 integral format.
 Two-electron integral symmetry is turned on.
    80 basis functions,   140 primitive gaussians,    80 cartesian basis functions
    14 alpha electrons       14 beta electrons
       nuclear repulsion energy        87.0673129112 Hartrees.
 NAtoms=    8 NActive=    8 NUniq=    8 SFac= 1.00D+00 NAtFMM=   60 NAOKFM=F Big=F
 One-electron integrals computed using PRISM.
 NBasis=    80 RedAO= T  NBF=    80
 NBsUse=    80 1.00D-06 NBFU=    80
 Harris functional with IExCor=  402 diagonalized for initial guess.
 ExpMin= 1.61D-01 ExpMax= 3.05D+03 ExpMxC= 4.57D+02 IAcc=1 IRadAn=         1 AccDes= 0.00D+00
 HarFok:  IExCor=  402 AccDes= 0.00D+00 IRadAn=         1 IDoV= 1
 ScaDFX=  1.000000  1.000000  1.000000  1.000000
 FoFCou: FMM=F IPFlag=           0 FMFlag=      100000 FMFlg1=           0
         NFxFlg=           0 DoJE=T BraDBF=F KetDBF=T FulRan=T
         Omega=  0.000000  0.000000  1.000000  0.000000  0.000000 ICntrl=     500 IOpCl=  0
         NMat0=    1 NMatS0=    1 NMatT0=    0 NMatD0=    1 NMtDS0=    0 NMtDT0=    0
         I1Cent=           4 NGrid=           0.
 Petite list used in FoFCou.
 Initial guess orbital symmetries:
       Occupied  (A) (A) (A) (A) (A) (A) (A) (A) (A) (A) (A) (A)
                 (A) (A)
       Virtual   (A) (A) (A) (A) (A) (A) (A) (A) (A) (A) (A) (A)
                 (A) (A) (A) (A) (A) (A) (A) (A) (A) (A) (A) (A)
                 (A) (A) (A) (A) (A) (A) (A) (A) (A) (A) (A) (A)
                 (A) (A) (A) (A) (A) (A) (A) (A) (A) (A) (A) (A)
                 (A) (A) (A) (A) (A) (A) (A) (A) (A) (A) (A) (A)
                 (A) (A) (A) (A) (A) (A)
 The electronic state of the initial guess is 1-A.
 Requested convergence on RMS density matrix=1.00D-08 within 128 cycles.
 Requested convergence on MAX density matrix=1.00D-06.
 Requested convergence on             energy=1.00D-06.
 No special actions if energy rises.
 Keep J ints in memory in canonical form, NReq=6256226.
 Integral accuracy reduced to 1.0D-05 until final iterations.
 Initial convergence to 1.0D-05 achieved.  Increase integral accuracy.
 SCF Done:  E(RB-LYP) =  -154.652632672     A.U. after   15 cycles
             Convg  =    0.3504D-08             -V/T =  2.0128

 **********************************************************************

            Population analysis using the SCF density.

 **********************************************************************

 Orbital symmetries:
       Occupied  (A) (A) (A) (A) (A) (A) (A) (A) (A) (A) (A) (A)
                 (A) (A)
       Virtual   (A) (A) (A) (A) (A) (A) (A) (A) (A) (A) (A) (A)
                 (A) (A) (A) (A) (A) (A) (A) (A) (A) (A) (A) (A)
                 (A) (A) (A) (A) (A) (A) (A) (A) (A) (A) (A) (A)
                 (A) (A) (A) (A) (A) (A) (A) (A) (A) (A) (A) (A)
                 (A) (A) (A) (A) (A) (A) (A) (A) (A) (A) (A) (A)
                 (A) (A) (A) (A) (A) (A)
 The electronic state is 1-A.
 Alpha  occ. eigenvalues --   -9.96155  -9.94823  -9.93755  -9.93474  -0.70846
 Alpha  occ. eigenvalues --   -0.63135  -0.54048  -0.47057  -0.42637  -0.38545
 Alpha  occ. eigenvalues --   -0.33095  -0.27442  -0.21654  -0.19982
 Alpha virt. eigenvalues --   -0.05159   0.00257   0.06409   0.07780   0.10628
 Alpha virt. eigenvalues --    0.11343   0.14141   0.23487   0.29869   0.37674
 Alpha virt. eigenvalues --    0.44031   0.48426   0.50098   0.53483   0.54059
 Alpha virt. eigenvalues --    0.58464   0.59894   0.61833   0.66445   0.72022
 Alpha virt. eigenvalues --    0.76227   0.77002   0.78743   0.82153   0.85190
 Alpha virt. eigenvalues --    0.97810   1.01585   1.09457   1.15766   1.24388
 Alpha virt. eigenvalues --    1.30882   1.40274   1.44120   1.48487   1.53124
 Alpha virt. eigenvalues --    1.54668   1.67401   1.77717   1.82268   1.83314
 Alpha virt. eigenvalues --    1.84133   1.93232   1.97290   1.99651   2.01149
 Alpha virt. eigenvalues --    2.12893   2.17347   2.26760   2.32984   2.39902
 Alpha virt. eigenvalues --    2.48112   2.50929   2.56912   2.64333   2.75887
 Alpha virt. eigenvalues --    2.77939   2.86875   2.96843   3.17914   3.32811
 Alpha virt. eigenvalues --    3.50633   3.60262   3.98536   4.15492   4.39026
 Alpha virt. eigenvalues --    4.89357
          Condensed to atoms (all electrons):
              1          2          3          4          5          6
     1  C    5.312815   0.722214  -0.099191   0.000995   0.372259   0.000469
     2  C    0.722214   4.793779   0.405150  -0.023831  -0.015087  -0.039699
     3  C   -0.099191   0.405150   4.861533   0.620981   0.001573   0.374232
     4  C    0.000995  -0.023831   0.620981   4.886477   0.000001  -0.052300
     5  H    0.372259  -0.015087   0.001573   0.000001   0.513715  -0.000026
     6  H    0.000469  -0.039699   0.374232  -0.052300  -0.000026   0.616339
     7  H   -0.000425  -0.011959  -0.024881   0.372686  -0.000025   0.006084
     8  H   -0.000071   0.004099  -0.023837   0.362201   0.000001  -0.007335
              7          8
     1  C   -0.000425  -0.000071
     2  C   -0.011959   0.004099
     3  C   -0.024881  -0.023837
     4  C    0.372686   0.362201
     5  H   -0.000025   0.000001
     6  H    0.006084  -0.007335
     7  H    0.599847  -0.043631
     8  H   -0.043631   0.614199
 Mulliken atomic charges:
              1
     1  C   -0.309066
     2  C    0.165334
     3  C   -0.115560
     4  C   -0.167211
     5  H    0.127590
     6  H    0.102236
     7  H    0.102303
     8  H    0.094375
 Sum of Mulliken atomic charges =   0.00000
 Mulliken charges with hydrogens summed into heavy atoms:
              1
     1  C   -0.181476
     2  C    0.165334
     3  C   -0.013324
     4  C    0.029466
 Sum of Mulliken charges with hydrogens summed into heavy atoms =   0.00000
 Electronic spatial extent (au):  <R**2>=            316.8009
 Charge=              0.0000 electrons
 Dipole moment (field-independent basis, Debye):
    X=              0.5374    Y=             -0.0008    Z=              0.0000  Tot=              0.5374
 Quadrupole moment (field-independent basis, Debye-Ang):
   XX=            -17.9306   YY=            -22.6093   ZZ=            -26.0438
   XY=              1.3179   XZ=              0.0000   YZ=              0.0000
 Traceless Quadrupole moment (field-independent basis, Debye-Ang):
   XX=              4.2640   YY=             -0.4147   ZZ=             -3.8492
   XY=              1.3179   XZ=              0.0000   YZ=              0.0000
 Octapole moment (field-independent basis, Debye-Ang**2):
  XXX=            -10.7353  YYY=              0.8456  ZZZ=              0.0000  XYY=              3.6496
  XXY=             -4.2826  XXZ=              0.0000  XZZ=              0.6576  YZZ=              0.0581
  YYZ=              0.0000  XYZ=              0.0000
 Hexadecapole moment (field-independent basis, Debye-Ang**3):
 XXXX=           -270.2655 YYYY=            -55.7797 ZZZZ=            -26.8897 XXXY=             14.4241
 XXXZ=              0.0001 YYYX=              1.0256 YYYZ=              0.0000 ZZZX=              0.0000
 ZZZY=              0.0000 XXYY=            -68.5581 XXZZ=            -68.9079 YYZZ=            -15.2185
 XXYZ=              0.0000 YYXZ=              0.0000 ZZXY=              0.2142
 N-N= 8.706731291117D+01 E-N=-5.317043217161D+02  KE= 1.526919472571D+02
 Calling FoFJK, ICntrl=      2527 FMM=F ISym2X=0 I1Cent= 0 IOpClX= 0 NMat=1 NMatS=1 NMatT=0.
 ***** Axes restored to original set *****
 -------------------------------------------------------------------
 Center     Atomic                   Forces (Hartrees/Bohr)
 Number     Number              X              Y              Z
 -------------------------------------------------------------------
      1        6           0.132617798   -0.000875776    0.000763135
      2        6          -0.077999516   -0.002881135    0.002510558
      3        6          -0.061441513   -0.000809948    0.000706660
      4        6           0.006902613    0.005656482   -0.004930581
      5        1          -0.005587166    0.000262948   -0.000229118
      6        1           0.000987197   -0.004299211    0.003746267
      7        1          -0.001089925    0.002610384   -0.002274339
      8        1           0.005610512    0.000336255   -0.000292584
 -------------------------------------------------------------------
 Cartesian Forces:  Max     0.132617798 RMS     0.033959048

 GradGradGradGradGradGradGradGradGradGradGradGradGradGradGradGradGradGrad
 Berny optimization.
 Internal  Forces:  Max     0.127030658 RMS     0.030087082
 Search for a local minimum.
 Step number   1 out of a maximum of   31
 All quantities printed in internal units (Hartrees-Bohrs-Radians)
 Mixed Optimization -- RFO/linear search
 Second derivative matrix not updated -- first step.
 ITU=  0
     Eigenvalues ---    0.00501   0.00501   0.00565   0.00565   0.02931
     Eigenvalues ---    0.02931   0.02931   0.16000   0.16000   0.16000
     Eigenvalues ---    0.22000   0.30367   0.35324   0.35423   0.35477
     Eigenvalues ---    0.37867   0.58034   0.66135
 RFO step:  Lambda=-3.16571871D-02 EMin= 5.01385780D-03
 Linear search not attempted -- first point.
 Iteration  1 RMS(Cart)=  0.08205327 RMS(Int)=  0.00111700
 Iteration  2 RMS(Cart)=  0.00133607 RMS(Int)=  0.00000102
 Iteration  3 RMS(Cart)=  0.00000146 RMS(Int)=  0.00000000
 Iteration  4 RMS(Cart)=  0.00000000 RMS(Int)=  0.00000000
 Variable       Old X    -DE/DX   Delta X   Delta X   Delta X     New X
                                 (Linear)    (Quad)   (Total)
    R1        2.46392  -0.12703   0.00000  -0.18330  -0.18330   2.28062
    R2        2.01260   0.00559   0.00000   0.01362   0.01362   2.02621
    R3        2.87238  -0.04903   0.00000  -0.14622  -0.14622   2.72616
    R4        2.52531   0.01561   0.00000   0.02550   0.02550   2.55081
    R5        2.04993   0.00552   0.00000   0.01431   0.01431   2.06424
    R6        2.05152   0.00356   0.00000   0.00926   0.00926   2.06078
    R7        2.04907   0.00561   0.00000   0.01453   0.01453   2.06360
    A1        2.09757   0.00856   0.00000   0.03403   0.03403   2.13160
    A2        2.04690  -0.00606   0.00000  -0.02630  -0.02630   2.02060
    A3        2.13872  -0.00250   0.00000  -0.00773  -0.00773   2.13099
    A4        2.11984   0.00067   0.00000   0.00352   0.00352   2.12336
    A5        2.10839   0.00006   0.00000   0.00030   0.00030   2.10869
    A6        2.05496  -0.00073   0.00000  -0.00382  -0.00382   2.05114
    A7        3.14069  -0.00069   0.00000  -0.01854  -0.01854   3.12216
    A8        3.14159   0.00131   0.00000   0.03577   0.03577   3.17736
    A9        3.14159   0.00000   0.00000   0.00000   0.00000   3.14159
   A10        3.14159   0.00000   0.00000   0.00000   0.00000   3.14159
    D1       -0.00001   0.00000   0.00000   0.00001   0.00001  -0.00001
    D2       -3.14159   0.00000   0.00000   0.00000   0.00000  -3.14159
    D3        3.14159   0.00000   0.00000   0.00000   0.00000   3.14159
    D4        0.00001   0.00000   0.00000  -0.00001  -0.00001   0.00001
         Item               Value     Threshold  Converged?
 Maximum Force            0.127031     0.000450     NO 
 RMS     Force            0.030087     0.000300     NO 
 Maximum Displacement     0.191943     0.001800     NO 
 RMS     Displacement     0.082139     0.001200     NO 
 Predicted change in Energy=-1.677636D-02
 GradGradGradGradGradGradGradGradGradGradGradGradGradGradGradGradGradGrad

                          Input orientation:                          
 ---------------------------------------------------------------------
 Center     Atomic      Atomic             Coordinates (Angstroms)
 Number     Number       Type             X           Y           Z
 ---------------------------------------------------------------------
      1          6           0        1.142162    0.075074   -0.018944
      2          6           0        2.348360    0.104982   -0.045007
      3          6           0        3.790977    0.101841   -0.042268
      4          6           0        4.512203    0.962053   -0.791879
      5          1           0        0.070033    0.064207   -0.009476
      6          1           0        4.263072   -0.640804    0.604898
      7          1           0        4.033410    1.700721   -1.435581
      8          1           0        5.603853    0.940816   -0.773374
 ---------------------------------------------------------------------
                    Distance matrix (angstroms):
                    1          2          3          4          5
     1  C    0.000000
     2  C    1.206850   0.000000
     3  C    2.649053   1.442623   0.000000
     4  C    3.569501   2.444301   1.349832   0.000000
     5  H    1.072226   2.278969   3.721280   4.599039   0.000000
     6  H    3.262168   2.155156   1.092347   2.140608   4.296054
     7  H    3.606786   2.705452   2.134598   1.090517   4.518884
     8  H    4.607099   3.439094   2.127184   1.092013   5.654657
                    6          7          8
     6  H    0.000000
     7  H    3.114328   0.000000
     8  H    2.489749   1.866083   0.000000
 Stoichiometry    C4H4
 Framework group  C1[X(C4H4)]
 Deg. of freedom    18
 Full point group                 C1      NOp   1
 Largest Abelian subgroup         C1      NOp   1
 Largest concise Abelian subgroup C1      NOp   1
                         Standard orientation:                         
 ---------------------------------------------------------------------
 Center     Atomic      Atomic             Coordinates (Angstroms)
 Number     Number       Type             X           Y           Z
 ---------------------------------------------------------------------
      1          6           0       -1.908531   -0.175341    0.000000
      2          6           0       -0.737238    0.115453    0.000000
      3          6           0        0.649556    0.512901    0.000001
      4          6           0        1.654621   -0.388148   -0.000001
      5          1           0       -2.943948   -0.453872    0.000000
      6          1           0        0.835102    1.589374   -0.000001
      7          1           0        1.461191   -1.461372    0.000002
      8          1           0        2.697206   -0.063326    0.000002
 ---------------------------------------------------------------------
 Rotational constants (GHZ):     48.5969572      4.7235521      4.3051025
 Standard basis: 6-31G(d,p) (6D, 7F)
 There are    80 symmetry adapted basis functions of A   symmetry.
 Integral buffers will be    131072 words long.
 Raffenetti 2 integral format.
 Two-electron integral symmetry is turned on.
    80 basis functions,   140 primitive gaussians,    80 cartesian basis functions
    14 alpha electrons       14 beta electrons
       nuclear repulsion energy        89.6255931570 Hartrees.
 NAtoms=    8 NActive=    8 NUniq=    8 SFac= 1.00D+00 NAtFMM=   60 NAOKFM=F Big=F
 One-electron integrals computed using PRISM.
 NBasis=    80 RedAO= T  NBF=    80
 NBsUse=    80 1.00D-06 NBFU=    80
 Initial guess read from the read-write file.
 B after Tr=     0.000000    0.000000    0.000000
         Rot=    1.000000    0.000000    0.000000    0.000000 Ang=   0.00 deg.
 Initial guess orbital symmetries:
       Occupied  (A) (A) (A) (A) (A) (A) (A) (A) (A) (A) (A) (A)
                 (A) (A)
       Virtual   (A) (A) (A) (A) (A) (A) (A) (A) (A) (A) (A) (A)
                 (A) (A) (A) (A) (A) (A) (A) (A) (A) (A) (A) (A)
                 (A) (A) (A) (A) (A) (A) (A) (A) (A) (A) (A) (A)
                 (A) (A) (A) (A) (A) (A) (A) (A) (A) (A) (A) (A)
                 (A) (A) (A) (A) (A) (A) (A) (A) (A) (A) (A) (A)
                 (A) (A) (A) (A) (A) (A)
 Harris functional with IExCor=  402 diagonalized for initial guess.
 ExpMin= 1.61D-01 ExpMax= 3.05D+03 ExpMxC= 4.57D+02 IAcc=1 IRadAn=         1 AccDes= 0.00D+00
 HarFok:  IExCor=  402 AccDes= 0.00D+00 IRadAn=         1 IDoV= 1
 ScaDFX=  1.000000  1.000000  1.000000  1.000000
 FoFCou: FMM=F IPFlag=           0 FMFlag=      100000 FMFlg1=           0
         NFxFlg=           0 DoJE=T BraDBF=F KetDBF=T FulRan=T
         Omega=  0.000000  0.000000  1.000000  0.000000  0.000000 ICntrl=     500 IOpCl=  0
         NMat0=    1 NMatS0=    1 NMatT0=    0 NMatD0=    1 NMtDS0=    0 NMtDT0=    0
         I1Cent=           4 NGrid=           0.
 Petite list used in FoFCou.
 Requested convergence on RMS density matrix=1.00D-08 within 128 cycles.
 Requested convergence on MAX density matrix=1.00D-06.
 Requested convergence on             energy=1.00D-06.
 No special actions if energy rises.
 Keep J ints in memory in canonical form, NReq=6256219.
 Integral accuracy reduced to 1.0D-05 until final iterations.
 Initial convergence to 1.0D-05 achieved.  Increase integral accuracy.
 SCF Done:  E(RB-LYP) =  -154.668087009     A.U. after   14 cycles
             Convg  =    0.6149D-08             -V/T =  2.0101
 Calling FoFJK, ICntrl=      2527 FMM=F ISym2X=0 I1Cent= 0 IOpClX= 0 NMat=1 NMatS=1 NMatT=0.
 ***** Axes restored to original set *****
 -------------------------------------------------------------------
 Center     Atomic                   Forces (Hartrees/Bohr)
 Number     Number              X              Y              Z
 -------------------------------------------------------------------
      1        6          -0.031244182   -0.000907063    0.000790363
      2        6           0.037918034   -0.001228132    0.001070218
      3        6          -0.016636420    0.003108204   -0.002708164
      4        6           0.005851060   -0.001188394    0.001034967
      5        1           0.001060503    0.000127366   -0.000110958
      6        1           0.003184341   -0.000469687    0.000409186
      7        1          -0.000318427    0.000254029   -0.000221195
      8        1           0.000185091    0.000303676   -0.000264416
 -------------------------------------------------------------------
 Cartesian Forces:  Max     0.037918034 RMS     0.010725075

 GradGradGradGradGradGradGradGradGradGradGradGradGradGradGradGradGradGrad
 Berny optimization.
 Using GEDIIS/GDIIS optimizer.
 Internal  Forces:  Max     0.030201480 RMS     0.007105204
 Search for a local minimum.
 Step number   2 out of a maximum of   31
 All quantities printed in internal units (Hartrees-Bohrs-Radians)
 Mixed Optimization -- RFO/linear search
 Update second derivatives using D2CorX and points    1    2
 DE= -1.55D-02 DEPred=-1.68D-02 R= 9.21D-01
 SS=  1.41D+00  RLast= 2.45D-01 DXNew= 5.0454D-01 7.3409D-01
 Trust test= 9.21D-01 RLast= 2.45D-01 DXMaxT set to 5.05D-01
 ITU=  1  0
 Use linear search instead of GDIIS.
     Eigenvalues ---    0.00501   0.00503   0.00565   0.00565   0.02931
     Eigenvalues ---    0.02931   0.02931   0.15997   0.16000   0.16031
     Eigenvalues ---    0.21464   0.28659   0.35313   0.35385   0.35478
     Eigenvalues ---    0.37887   0.57809   0.86180
 RFO step:  Lambda=-1.40245738D-03 EMin= 5.01385780D-03
 Quartic linear search produced a step of -0.08984.
 Iteration  1 RMS(Cart)=  0.04035444 RMS(Int)=  0.00104968
 Iteration  2 RMS(Cart)=  0.00141082 RMS(Int)=  0.00000053
 Iteration  3 RMS(Cart)=  0.00000075 RMS(Int)=  0.00000000
 Variable       Old X    -DE/DX   Delta X   Delta X   Delta X     New X
                                 (Linear)    (Quad)   (Total)
    R1        2.28062   0.03020   0.01647   0.01462   0.03108   2.31170
    R2        2.02621  -0.00106  -0.00122  -0.00029  -0.00152   2.02470
    R3        2.72616  -0.00774   0.01314  -0.04882  -0.03569   2.69048
    R4        2.55081   0.00235  -0.00229   0.00750   0.00520   2.55602
    R5        2.06424   0.00194  -0.00129   0.00736   0.00608   2.07031
    R6        2.06078   0.00044  -0.00083   0.00269   0.00186   2.06264
    R7        2.06360   0.00017  -0.00131   0.00289   0.00158   2.06519
    A1        2.13160   0.00644  -0.00306   0.03316   0.03010   2.16170
    A2        2.02060  -0.00053   0.00236  -0.00353  -0.00117   2.01943
    A3        2.13099  -0.00591   0.00069  -0.02963  -0.02894   2.10205
    A4        2.12336  -0.00047  -0.00032  -0.00186  -0.00217   2.12119
    A5        2.10869   0.00065  -0.00003   0.00376   0.00373   2.11242
    A6        2.05114  -0.00019   0.00034  -0.00190  -0.00156   2.04958
    A7        3.12216  -0.00031   0.00167  -0.08672  -0.08506   3.03710
    A8        3.17736  -0.00022  -0.00321   0.06610   0.06288   3.24024
    A9        3.14159   0.00000   0.00000   0.00001   0.00001   3.14160
   A10        3.14159   0.00000   0.00000   0.00000   0.00000   3.14159
    D1       -0.00001   0.00000   0.00000   0.00001   0.00001   0.00000
    D2       -3.14159   0.00000   0.00000   0.00000   0.00000   3.14159
    D3        3.14159   0.00000   0.00000   0.00000   0.00000  -3.14159
    D4        0.00001   0.00000   0.00000  -0.00001  -0.00001   0.00000
         Item               Value     Threshold  Converged?
 Maximum Force            0.030201     0.000450     NO 
 RMS     Force            0.007105     0.000300     NO 
 Maximum Displacement     0.082604     0.001800     NO 
 RMS     Displacement     0.040289     0.001200     NO 
 Predicted change in Energy=-7.887284D-04
 GradGradGradGradGradGradGradGradGradGradGradGradGradGradGradGradGradGrad

                          Input orientation:                          
 ---------------------------------------------------------------------
 Center     Atomic      Atomic             Coordinates (Angstroms)
 Number     Number       Type             X           Y           Z
 ---------------------------------------------------------------------
      1          6           0        1.127941    0.038334    0.013070
      2          6           0        2.345773    0.125434   -0.062828
      3          6           0        3.769499    0.121068   -0.059021
      4          6           0        4.527602    0.965569   -0.794947
      5          1           0        0.056570    0.046340    0.006095
      6          1           0        4.240666   -0.624602    0.590778
      7          1           0        4.077122    1.715110   -1.448118
      8          1           0        5.618898    0.921637   -0.756660
 ---------------------------------------------------------------------
                    Distance matrix (angstroms):
                    1          2          3          4          5
     1  C    0.000000
     2  C    1.223299   0.000000
     3  C    2.643837   1.423738   0.000000
     4  C    3.615294   2.449940   1.352586   0.000000
     5  H    1.071423   2.291605   3.714252   4.634304   0.000000
     6  H    3.234545   2.140181   1.095563   2.128663   4.277695
     7  H    3.693821   2.728308   2.136631   1.091502   4.589593
     8  H    4.641272   3.439287   2.132578   1.092851   5.682203
                    6          7          8
     6  H    0.000000
     7  H    3.107747   0.000000
     8  H    2.471026   1.866758   0.000000
 Stoichiometry    C4H4
 Framework group  C1[X(C4H4)]
 Deg. of freedom    18
 Full point group                 C1      NOp   1
 Largest Abelian subgroup         C1      NOp   1
 Largest concise Abelian subgroup C1      NOp   1
                         Standard orientation:                         
 ---------------------------------------------------------------------
 Center     Atomic      Atomic             Coordinates (Angstroms)
 Number     Number       Type             X           Y           Z
 ---------------------------------------------------------------------
      1          6           0       -1.930385   -0.151738    0.000000
      2          6           0       -0.729806    0.082931    0.000000
      3          6           0        0.633797    0.492343   -0.000001
      4          6           0        1.678509   -0.366765    0.000001
      5          1           0       -2.954737   -0.465827   -0.000001
      6          1           0        0.805048    1.574440    0.000000
      7          1           0        1.528550   -1.447916   -0.000002
      8          1           0        2.708449   -0.001325   -0.000001
 ---------------------------------------------------------------------
 Rotational constants (GHZ):     52.0592235      4.6426298      4.2625010
 Standard basis: 6-31G(d,p) (6D, 7F)
 There are    80 symmetry adapted basis functions of A   symmetry.
 Integral buffers will be    131072 words long.
 Raffenetti 2 integral format.
 Two-electron integral symmetry is turned on.
    80 basis functions,   140 primitive gaussians,    80 cartesian basis functions
    14 alpha electrons       14 beta electrons
       nuclear repulsion energy        89.4521133193 Hartrees.
 NAtoms=    8 NActive=    8 NUniq=    8 SFac= 1.00D+00 NAtFMM=   60 NAOKFM=F Big=F
 One-electron integrals computed using PRISM.
 NBasis=    80 RedAO= T  NBF=    80
 NBsUse=    80 1.00D-06 NBFU=    80
 Initial guess read from the read-write file.
 B after Tr=     0.000000    0.000000    0.000000
         Rot=    1.000000    0.000000    0.000000    0.000000 Ang=   0.00 deg.
 Initial guess orbital symmetries:
       Occupied  (A) (A) (A) (A) (A) (A) (A) (A) (A) (A) (A) (A)
                 (A) (A)
       Virtual   (A) (A) (A) (A) (A) (A) (A) (A) (A) (A) (A) (A)
                 (A) (A) (A) (A) (A) (A) (A) (A) (A) (A) (A) (A)
                 (A) (A) (A) (A) (A) (A) (A) (A) (A) (A) (A) (A)
                 (A) (A) (A) (A) (A) (A) (A) (A) (A) (A) (A) (A)
                 (A) (A) (A) (A) (A) (A) (A) (A) (A) (A) (A) (A)
                 (A) (A) (A) (A) (A) (A)
 Harris functional with IExCor=  402 diagonalized for initial guess.
 ExpMin= 1.61D-01 ExpMax= 3.05D+03 ExpMxC= 4.57D+02 IAcc=1 IRadAn=         1 AccDes= 0.00D+00
 HarFok:  IExCor=  402 AccDes= 0.00D+00 IRadAn=         1 IDoV= 1
 ScaDFX=  1.000000  1.000000  1.000000  1.000000
 FoFCou: FMM=F IPFlag=           0 FMFlag=      100000 FMFlg1=           0
         NFxFlg=           0 DoJE=T BraDBF=F KetDBF=T FulRan=T
         Omega=  0.000000  0.000000  1.000000  0.000000  0.000000 ICntrl=     500 IOpCl=  0
         NMat0=    1 NMatS0=    1 NMatT0=    0 NMatD0=    1 NMtDS0=    0 NMtDT0=    0
         I1Cent=           4 NGrid=           0.
 Petite list used in FoFCou.
 Requested convergence on RMS density matrix=1.00D-08 within 128 cycles.
 Requested convergence on MAX density matrix=1.00D-06.
 Requested convergence on             energy=1.00D-06.
 No special actions if energy rises.
 Keep J ints in memory in canonical form, NReq=6256219.
 Integral accuracy reduced to 1.0D-05 until final iterations.
 Initial convergence to 1.0D-05 achieved.  Increase integral accuracy.
 SCF Done:  E(RB-LYP) =  -154.668740034     A.U. after   13 cycles
             Convg  =    0.3391D-08             -V/T =  2.0104
 Calling FoFJK, ICntrl=      2527 FMM=F ISym2X=0 I1Cent= 0 IOpClX= 0 NMat=1 NMatS=1 NMatT=0.
 ***** Axes restored to original set *****
 -------------------------------------------------------------------
 Center     Atomic                   Forces (Hartrees/Bohr)
 Number     Number              X              Y              Z
 -------------------------------------------------------------------
      1        6           0.000194693    0.002341694   -0.002040535
      2        6          -0.003297764   -0.003110982    0.002711040
      3        6          -0.000735490    0.002046143   -0.001783374
      4        6           0.002752943   -0.000543126    0.000473754
      5        1           0.000217047   -0.000745435    0.000649542
      6        1           0.001558998   -0.000050399    0.000043974
      7        1           0.000024651    0.000073938   -0.000064582
      8        1          -0.000715078   -0.000011833    0.000010182
 -------------------------------------------------------------------
 Cartesian Forces:  Max     0.003297764 RMS     0.001548871

 GradGradGradGradGradGradGradGradGradGradGradGradGradGradGradGradGradGrad
 Berny optimization.
 Using GEDIIS/GDIIS optimizer.
 Internal  Forces:  Max     0.002877478 RMS     0.001329570
 Search for a local minimum.
 Step number   3 out of a maximum of   31
 All quantities printed in internal units (Hartrees-Bohrs-Radians)
 Mixed Optimization -- RFO/linear search
 Update second derivatives using D2CorX and points    1    2    3
 DE= -6.53D-04 DEPred=-7.89D-04 R= 8.28D-01
 SS=  1.41D+00  RLast= 1.24D-01 DXNew= 8.4853D-01 3.7068D-01
 Trust test= 8.28D-01 RLast= 1.24D-01 DXMaxT set to 5.05D-01
 ITU=  1  1  0
 Use linear search instead of GDIIS.
     Eigenvalues ---    0.00501   0.00522   0.00565   0.00794   0.02931
     Eigenvalues ---    0.02931   0.02931   0.13670   0.16001   0.16016
     Eigenvalues ---    0.17969   0.30295   0.35261   0.35349   0.35555
     Eigenvalues ---    0.37887   0.57476   0.90943
 RFO step:  Lambda=-1.40351405D-03 EMin= 5.01385780D-03
 Quartic linear search produced a step of -0.15903.
 Iteration  1 RMS(Cart)=  0.06210934 RMS(Int)=  0.03023014
 Iteration  2 RMS(Cart)=  0.08433936 RMS(Int)=  0.00312764
 Iteration  3 RMS(Cart)=  0.00495125 RMS(Int)=  0.00000084
 Iteration  4 RMS(Cart)=  0.00000079 RMS(Int)=  0.00000000
 Variable       Old X    -DE/DX   Delta X   Delta X   Delta X     New X
                                 (Linear)    (Quad)   (Total)
    R1        2.31170  -0.00061  -0.00494   0.01880   0.01386   2.32556
    R2        2.02470  -0.00023   0.00024  -0.00119  -0.00095   2.02375
    R3        2.69048   0.00288   0.00568  -0.03630  -0.03063   2.65985
    R4        2.55602   0.00063  -0.00083   0.00768   0.00686   2.56287
    R5        2.07031   0.00073  -0.00097   0.00864   0.00767   2.07798
    R6        2.06264   0.00008  -0.00030   0.00260   0.00230   2.06494
    R7        2.06519  -0.00071  -0.00025   0.00078   0.00052   2.06571
    A1        2.16170   0.00273  -0.00479   0.04214   0.03736   2.19905
    A2        2.01943   0.00006   0.00019  -0.00042  -0.00023   2.01920
    A3        2.10205  -0.00279   0.00460  -0.04172  -0.03712   2.06493
    A4        2.12119   0.00012   0.00035  -0.00132  -0.00098   2.12021
    A5        2.11242  -0.00012  -0.00059   0.00311   0.00251   2.11493
    A6        2.04958  -0.00001   0.00025  -0.00178  -0.00154   2.04804
    A7        3.03710   0.00200   0.01353   0.17629   0.18982   3.22692
    A8        3.24024  -0.00278  -0.01000  -0.32437  -0.33437   2.90587
    A9        3.14160   0.00000   0.00000   0.00000   0.00000   3.14159
   A10        3.14159   0.00000   0.00000   0.00000   0.00000   3.14160
    D1        0.00000   0.00000   0.00000   0.00001   0.00000   0.00001
    D2        3.14159   0.00000   0.00000   0.00000   0.00000   3.14159
    D3       -3.14159   0.00000   0.00000   0.00000   0.00000  -3.14159
    D4        0.00000   0.00000   0.00000  -0.00001   0.00000  -0.00001
         Item               Value     Threshold  Converged?
 Maximum Force            0.002877     0.000450     NO 
 RMS     Force            0.001330     0.000300     NO 
 Maximum Displacement     0.273779     0.001800     NO 
 RMS     Displacement     0.137462     0.001200     NO 
 Predicted change in Energy=-8.078192D-04
 GradGradGradGradGradGradGradGradGradGradGradGradGradGradGradGradGradGrad

                          Input orientation:                          
 ---------------------------------------------------------------------
 Center     Atomic      Atomic             Coordinates (Angstroms)
 Number     Number       Type             X           Y           Z
 ---------------------------------------------------------------------
      1          6           0        1.161429    0.112909   -0.051915
      2          6           0        2.379473   -0.019444    0.063426
      3          6           0        3.780977    0.078656   -0.022061
      4          6           0        4.473221    0.957891   -0.788259
      5          1           0        0.092296    0.159565   -0.092575
      6          1           0        4.347258   -0.631980    0.597207
      7          1           0        3.963104    1.686428   -1.423123
      8          1           0        5.566310    0.964864   -0.794330
 ---------------------------------------------------------------------
                    Distance matrix (angstroms):
                    1          2          3          4          5
     1  C    0.000000
     2  C    1.230631   0.000000
     3  C    2.619942   1.407531   0.000000
     4  C    3.496307   2.462586   1.356214   0.000000
     5  H    1.070923   2.299469   3.690242   4.507083   0.000000
     6  H    3.335524   2.128919   1.099622   2.112598   4.382583
     7  H    3.493645   2.761832   2.140345   1.092720   4.368618
     8  H    4.547525   3.443913   2.137564   1.093128   5.577257
                    6          7          8
     6  H    0.000000
     7  H    3.099084   0.000000
     8  H    2.443844   1.867165   0.000000
 Stoichiometry    C4H4
 Framework group  C1[X(C4H4)]
 Deg. of freedom    18
 Full point group                 C1      NOp   1
 Largest Abelian subgroup         C1      NOp   1
 Largest concise Abelian subgroup C1      NOp   1
                         Standard orientation:                         
 ---------------------------------------------------------------------
 Center     Atomic      Atomic             Coordinates (Angstroms)
 Number     Number       Type             X           Y           Z
 ---------------------------------------------------------------------
      1          6           0       -1.870227   -0.236314    0.000001
      2          6           0       -0.744079    0.259915   -0.000002
      3          6           0        0.640883    0.510964   -0.000001
      4          6           0        1.620903   -0.426521    0.000002
      5          1           0       -2.883462   -0.583056    0.000002
      6          1           0        0.933214    1.571016    0.000003
      7          1           0        1.389049   -1.494360   -0.000004
      8          1           0        2.676318   -0.141865   -0.000001
 ---------------------------------------------------------------------
 Rotational constants (GHZ):     42.5223519      4.8869493      4.3832027
 Standard basis: 6-31G(d,p) (6D, 7F)
 There are    80 symmetry adapted basis functions of A   symmetry.
 Integral buffers will be    131072 words long.
 Raffenetti 2 integral format.
 Two-electron integral symmetry is turned on.
    80 basis functions,   140 primitive gaussians,    80 cartesian basis functions
    14 alpha electrons       14 beta electrons
       nuclear repulsion energy        89.7265419908 Hartrees.
 NAtoms=    8 NActive=    8 NUniq=    8 SFac= 1.00D+00 NAtFMM=   60 NAOKFM=F Big=F
 One-electron integrals computed using PRISM.
 NBasis=    80 RedAO= T  NBF=    80
 NBsUse=    80 1.00D-06 NBFU=    80
 Initial guess read from the read-write file.
 B after Tr=     0.000000    0.000000    0.000000
         Rot=    1.000000    0.000000    0.000000    0.000000 Ang=   0.00 deg.
 Initial guess orbital symmetries:
       Occupied  (A) (A) (A) (A) (A) (A) (A) (A) (A) (A) (A) (A)
                 (A) (A)
       Virtual   (A) (A) (A) (A) (A) (A) (A) (A) (A) (A) (A) (A)
                 (A) (A) (A) (A) (A) (A) (A) (A) (A) (A) (A) (A)
                 (A) (A) (A) (A) (A) (A) (A) (A) (A) (A) (A) (A)
                 (A) (A) (A) (A) (A) (A) (A) (A) (A) (A) (A) (A)
                 (A) (A) (A) (A) (A) (A) (A) (A) (A) (A) (A) (A)
                 (A) (A) (A) (A) (A) (A)
 Harris functional with IExCor=  402 diagonalized for initial guess.
 ExpMin= 1.61D-01 ExpMax= 3.05D+03 ExpMxC= 4.57D+02 IAcc=1 IRadAn=         1 AccDes= 0.00D+00
 HarFok:  IExCor=  402 AccDes= 0.00D+00 IRadAn=         1 IDoV= 1
 ScaDFX=  1.000000  1.000000  1.000000  1.000000
 FoFCou: FMM=F IPFlag=           0 FMFlag=      100000 FMFlg1=           0
         NFxFlg=           0 DoJE=T BraDBF=F KetDBF=T FulRan=T
         Omega=  0.000000  0.000000  1.000000  0.000000  0.000000 ICntrl=     500 IOpCl=  0
         NMat0=    1 NMatS0=    1 NMatT0=    0 NMatD0=    1 NMtDS0=    0 NMtDT0=    0
         I1Cent=           4 NGrid=           0.
 Petite list used in FoFCou.
 Requested convergence on RMS density matrix=1.00D-08 within 128 cycles.
 Requested convergence on MAX density matrix=1.00D-06.
 Requested convergence on             energy=1.00D-06.
 No special actions if energy rises.
 Keep J ints in memory in canonical form, NReq=6256212.
 Integral accuracy reduced to 1.0D-05 until final iterations.
 Initial convergence to 1.0D-05 achieved.  Increase integral accuracy.
 SCF Done:  E(RB-LYP) =  -154.665900741     A.U. after   15 cycles
             Convg  =    0.3161D-08             -V/T =  2.0105
 Calling FoFJK, ICntrl=      2527 FMM=F ISym2X=0 I1Cent= 0 IOpClX= 0 NMat=1 NMatS=1 NMatT=0.
 ***** Axes restored to original set *****
 -------------------------------------------------------------------
 Center     Atomic                   Forces (Hartrees/Bohr)
 Number     Number              X              Y              Z
 -------------------------------------------------------------------
      1        6           0.009546669   -0.005352748    0.004664697
      2        6          -0.025372065    0.013432505   -0.011705703
      3        6           0.019241645   -0.007301641    0.006362382
      4        6          -0.002872561    0.000336018   -0.000291900
      5        1          -0.000398580   -0.001102046    0.000960377
      6        1           0.000903616    0.000936986   -0.000816345
      7        1           0.000121874   -0.000274669    0.000239098
      8        1          -0.001170599   -0.000674405    0.000587396
 -------------------------------------------------------------------
 Cartesian Forces:  Max     0.025372065 RMS     0.008119437

 GradGradGradGradGradGradGradGradGradGradGradGradGradGradGradGradGradGrad
 Berny optimization.
 Using GEDIIS/GDIIS optimizer.
 Internal  Forces:  Max     0.019675768 RMS     0.006123811
 Search for a local minimum.
 Step number   4 out of a maximum of   31
 All quantities printed in internal units (Hartrees-Bohrs-Radians)
 Mixed Optimization -- RFO/linear search
 Update second derivatives using D2CorX and points    1    2    4    3
 DE=  2.84D-03 DEPred=-8.08D-04 R=-3.51D+00
 Trust test=-3.51D+00 RLast= 3.90D-01 DXMaxT set to 2.52D-01
 ITU= -1  1  1  0
 Use linear search instead of GDIIS.
 Quartic linear search produced a step of -0.83956.
 Iteration  1 RMS(Cart)=  0.07268769 RMS(Int)=  0.01872157
 Iteration  2 RMS(Cart)=  0.04842112 RMS(Int)=  0.00111843
 Iteration  3 RMS(Cart)=  0.00184417 RMS(Int)=  0.00000027
 Iteration  4 RMS(Cart)=  0.00000029 RMS(Int)=  0.00000000
 Variable       Old X    -DE/DX   Delta X   Delta X   Delta X     New X
                                 (Linear)    (Quad)   (Total)
    R1        2.32556  -0.01028  -0.01163   0.00000  -0.01163   2.31392
    R2        2.02375   0.00031   0.00079   0.00000   0.00079   2.02454
    R3        2.65985   0.01530   0.02571   0.00000   0.02571   2.68556
    R4        2.56287  -0.00270  -0.00576   0.00000  -0.00576   2.55712
    R5        2.07798  -0.00060  -0.00644   0.00000  -0.00644   2.07155
    R6        2.06494  -0.00038  -0.00193   0.00000  -0.00193   2.06301
    R7        2.06571  -0.00118  -0.00044   0.00000  -0.00044   2.06527
    A1        2.19905  -0.00490  -0.03136   0.00000  -0.03136   2.16769
    A2        2.01920   0.00392   0.00020   0.00000   0.00020   2.01940
    A3        2.06493   0.00098   0.03117   0.00000   0.03117   2.09610
    A4        2.12021   0.00052   0.00082   0.00000   0.00082   2.12103
    A5        2.11493  -0.00117  -0.00211   0.00000  -0.00211   2.11282
    A6        2.04804   0.00065   0.00129   0.00000   0.00129   2.04933
    A7        3.22692   0.00300  -0.15936   0.00000  -0.15936   3.06755
    A8        2.90587   0.01968   0.28073   0.00000   0.28073   3.18660
    A9        3.14159   0.00000   0.00000   0.00000   0.00000   3.14160
   A10        3.14160   0.00000   0.00000   0.00000   0.00000   3.14159
    D1        0.00001   0.00000   0.00000   0.00000   0.00000   0.00000
    D2        3.14159   0.00000   0.00000   0.00000   0.00000   3.14159
    D3       -3.14159   0.00000   0.00000   0.00000   0.00000  -3.14159
    D4       -0.00001   0.00000   0.00000   0.00000   0.00000   0.00000
         Item               Value     Threshold  Converged?
 Maximum Force            0.019676     0.000450     NO 
 RMS     Force            0.006124     0.000300     NO 
 Maximum Displacement     0.229470     0.001800     NO 
 RMS     Displacement     0.116075     0.001200     NO 
 Predicted change in Energy=-4.248005D-06
 GradGradGradGradGradGradGradGradGradGradGradGradGradGradGradGradGradGrad

                          Input orientation:                          
 ---------------------------------------------------------------------
 Center     Atomic      Atomic             Coordinates (Angstroms)
 Number     Number       Type             X           Y           Z
 ---------------------------------------------------------------------
      1          6           0        1.129232    0.049767    0.003108
      2          6           0        2.351747    0.101986   -0.042395
      3          6           0        3.772790    0.114407   -0.053217
      4          6           0        4.520349    0.964760   -0.794243
      5          1           0        0.058052    0.063854   -0.009167
      6          1           0        4.259640   -0.626061    0.592050
      7          1           0        4.060040    1.711062   -1.444590
      8          1           0        5.612221    0.929115   -0.763177
 ---------------------------------------------------------------------
                    Distance matrix (angstroms):
                    1          2          3          4          5
     1  C    0.000000
     2  C    1.224475   0.000000
     3  C    2.644947   1.421138   0.000000
     4  C    3.601757   2.452038   1.353168   0.000000
     5  H    1.071343   2.294253   3.715343   4.619531   0.000000
     6  H    3.256233   2.138371   1.096215   2.126144   4.300092
     7  H    3.666792   2.733778   2.137227   1.091697   4.559566
     8  H    4.632239   3.440111   2.133378   1.092896   5.671508
                    6          7          8
     6  H    0.000000
     7  H    3.106427   0.000000
     8  H    2.466716   1.866824   0.000000
 Stoichiometry    C4H4
 Framework group  C1[X(C4H4)]
 Deg. of freedom    18
 Full point group                 C1      NOp   1
 Largest Abelian subgroup         C1      NOp   1
 Largest concise Abelian subgroup C1      NOp   1
                         Standard orientation:                         
 ---------------------------------------------------------------------
 Center     Atomic      Atomic             Coordinates (Angstroms)
 Number     Number       Type             X           Y           Z
 ---------------------------------------------------------------------
      1          6           0       -1.924556   -0.165302    0.000001
      2          6           0       -0.731856    0.111837    0.000000
      3          6           0        0.636532    0.495436   -0.000001
      4          6           0        1.670980   -0.376907    0.000001
      5          1           0       -2.947303   -0.484308   -0.000001
      6          1           0        0.827699    1.574853    0.000001
      7          1           0        1.507458   -1.456288   -0.000002
      8          1           0        2.705547   -0.024640   -0.000001
 ---------------------------------------------------------------------
 Rotational constants (GHZ):     50.5521904      4.6675876      4.2730483
 Standard basis: 6-31G(d,p) (6D, 7F)
 There are    80 symmetry adapted basis functions of A   symmetry.
 Integral buffers will be    131072 words long.
 Raffenetti 2 integral format.
 Two-electron integral symmetry is turned on.
    80 basis functions,   140 primitive gaussians,    80 cartesian basis functions
    14 alpha electrons       14 beta electrons
       nuclear repulsion energy        89.4652657790 Hartrees.
 NAtoms=    8 NActive=    8 NUniq=    8 SFac= 1.00D+00 NAtFMM=   60 NAOKFM=F Big=F
 One-electron integrals computed using PRISM.
 NBasis=    80 RedAO= T  NBF=    80
 NBsUse=    80 1.00D-06 NBFU=    80
 Initial guess read from the read-write file.
 B after Tr=     0.000000    0.000000    0.000000
         Rot=    1.000000    0.000000    0.000000    0.000000 Ang=   0.00 deg.
 Initial guess orbital symmetries:
       Occupied  (A) (A) (A) (A) (A) (A) (A) (A) (A) (A) (A) (A)
                 (A) (A)
       Virtual   (A) (A) (A) (A) (A) (A) (A) (A) (A) (A) (A) (A)
                 (A) (A) (A) (A) (A) (A) (A) (A) (A) (A) (A) (A)
                 (A) (A) (A) (A) (A) (A) (A) (A) (A) (A) (A) (A)
                 (A) (A) (A) (A) (A) (A) (A) (A) (A) (A) (A) (A)
                 (A) (A) (A) (A) (A) (A) (A) (A) (A) (A) (A) (A)
                 (A) (A) (A) (A) (A) (A)
 Harris functional with IExCor=  402 diagonalized for initial guess.
 ExpMin= 1.61D-01 ExpMax= 3.05D+03 ExpMxC= 4.57D+02 IAcc=1 IRadAn=         1 AccDes= 0.00D+00
 HarFok:  IExCor=  402 AccDes= 0.00D+00 IRadAn=         1 IDoV= 1
 ScaDFX=  1.000000  1.000000  1.000000  1.000000
 FoFCou: FMM=F IPFlag=           0 FMFlag=      100000 FMFlg1=           0
         NFxFlg=           0 DoJE=T BraDBF=F KetDBF=T FulRan=T
         Omega=  0.000000  0.000000  1.000000  0.000000  0.000000 ICntrl=     500 IOpCl=  0
         NMat0=    1 NMatS0=    1 NMatT0=    0 NMatD0=    1 NMtDS0=    0 NMtDT0=    0
         I1Cent=           4 NGrid=           0.
 Petite list used in FoFCou.
 Requested convergence on RMS density matrix=1.00D-08 within 128 cycles.
 Requested convergence on MAX density matrix=1.00D-06.
 Requested convergence on             energy=1.00D-06.
 No special actions if energy rises.
 Keep J ints in memory in canonical form, NReq=6256219.
 Integral accuracy reduced to 1.0D-05 until final iterations.
 Initial convergence to 1.0D-05 achieved.  Increase integral accuracy.
 SCF Done:  E(RB-LYP) =  -154.668853748     A.U. after   15 cycles
             Convg  =    0.1865D-08             -V/T =  2.0105
 Calling FoFJK, ICntrl=      2527 FMM=F ISym2X=0 I1Cent= 0 IOpClX= 0 NMat=1 NMatS=1 NMatT=0.
 ***** Axes restored to original set *****
 -------------------------------------------------------------------
 Center     Atomic                   Forces (Hartrees/Bohr)
 Number     Number              X              Y              Z
 -------------------------------------------------------------------
      1        6           0.003415565    0.001212390   -0.001056418
      2        6          -0.007819826   -0.000421557    0.000367356
      3        6           0.001628368    0.000279761   -0.000244123
      4        6           0.001820211   -0.000322660    0.000281707
      5        1           0.000205992   -0.000743926    0.000648239
      6        1           0.001501342    0.000110776   -0.000096463
      7        1           0.000053300    0.000016691   -0.000014713
      8        1          -0.000804952   -0.000131475    0.000114415
 -------------------------------------------------------------------
 Cartesian Forces:  Max     0.007819826 RMS     0.001892680

 GradGradGradGradGradGradGradGradGradGradGradGradGradGradGradGradGradGrad
 Berny optimization.
 Using GEDIIS/GDIIS optimizer.
 Internal  Forces:  Max     0.004197366 RMS     0.001456878
 Search for a local minimum.
 Step number   5 out of a maximum of   31
 All quantities printed in internal units (Hartrees-Bohrs-Radians)
 Mixed Optimization -- RFO/linear search
 Update second derivatives using D2CorX and points    1    2    4    3    5
 ITU=  0 -1  1  1  0
 Use linear search instead of GDIIS.
     Eigenvalues ---    0.00449   0.00501   0.00565   0.02931   0.02931
     Eigenvalues ---    0.02931   0.06312   0.12862   0.16004   0.16038
     Eigenvalues ---    0.18973   0.31031   0.35223   0.35345   0.35578
     Eigenvalues ---    0.37889   0.57508   0.96257
 RFO step:  Lambda=-8.06431324D-04 EMin= 4.49329496D-03
 Quartic linear search produced a step of -0.00414.
 Maximum step size (   0.252) exceeded in Quadratic search.
    -- Step size scaled by   0.698
 Iteration  1 RMS(Cart)=  0.08303682 RMS(Int)=  0.01476987
 Iteration  2 RMS(Cart)=  0.02054051 RMS(Int)=  0.00061738
 Iteration  3 RMS(Cart)=  0.00063654 RMS(Int)=  0.00000027
 Iteration  4 RMS(Cart)=  0.00000037 RMS(Int)=  0.00000000
 Variable       Old X    -DE/DX   Delta X   Delta X   Delta X     New X
                                 (Linear)    (Quad)   (Total)
    R1        2.31392  -0.00365  -0.00001   0.00197   0.00196   2.31589
    R2        2.02454  -0.00022   0.00000  -0.00066  -0.00066   2.02389
    R3        2.68556   0.00420   0.00002  -0.00862  -0.00860   2.67696
    R4        2.55712   0.00011   0.00000   0.00366   0.00366   2.56077
    R5        2.07155   0.00054  -0.00001   0.00468   0.00467   2.07622
    R6        2.06301   0.00000   0.00000   0.00120   0.00120   2.06421
    R7        2.06527  -0.00080   0.00000  -0.00081  -0.00081   2.06446
    A1        2.16769   0.00146  -0.00002   0.02167   0.02165   2.18934
    A2        2.01940   0.00073   0.00000   0.00313   0.00313   2.02253
    A3        2.09610  -0.00219   0.00002  -0.02480  -0.02478   2.07132
    A4        2.12103   0.00022   0.00000   0.00030   0.00030   2.12134
    A5        2.11282  -0.00033   0.00000   0.00006   0.00006   2.11288
    A6        2.04933   0.00010   0.00000  -0.00036  -0.00036   2.04897
    A7        3.06755   0.00199  -0.00013   0.24921   0.24908   3.31664
    A8        3.18660   0.00103   0.00022   0.01798   0.01820   3.20479
    A9        3.14160   0.00000   0.00000   0.00000   0.00000   3.14159
   A10        3.14159   0.00000   0.00000   0.00000   0.00000   3.14159
    D1        0.00000   0.00000   0.00000   0.00000   0.00000   0.00000
    D2        3.14159   0.00000   0.00000   0.00000   0.00000   3.14159
    D3       -3.14159   0.00000   0.00000   0.00000   0.00000  -3.14159
    D4        0.00000   0.00000   0.00000   0.00000   0.00000   0.00000
         Item               Value     Threshold  Converged?
 Maximum Force            0.004197     0.000450     NO 
 RMS     Force            0.001457     0.000300     NO 
 Maximum Displacement     0.250281     0.001800     NO 
 RMS     Displacement     0.099586     0.001200     NO 
 Predicted change in Energy=-3.920896D-04
 GradGradGradGradGradGradGradGradGradGradGradGradGradGradGradGradGradGrad

                          Input orientation:                          
 ---------------------------------------------------------------------
 Center     Atomic      Atomic             Coordinates (Angstroms)
 Number     Number       Type             X           Y           Z
 ---------------------------------------------------------------------
      1          6           0        1.104568    0.110680   -0.049973
      2          6           0        2.328621    0.155791   -0.089282
      3          6           0        3.745060    0.140457   -0.075918
      4          6           0        4.546585    0.964208   -0.793761
      5          1           0        0.060303   -0.068590    0.106247
      6          1           0        4.210419   -0.609883    0.577951
      7          1           0        4.133965    1.726713   -1.458229
      8          1           0        5.634549    0.889513   -0.728666
 ---------------------------------------------------------------------
                    Distance matrix (angstroms):
                    1          2          3          4          5
     1  C    0.000000
     2  C    1.225514   0.000000
     3  C    2.640787   1.416585   0.000000
     4  C    3.623425   2.463573   1.355103   0.000000
     5  H    1.070996   2.287760   3.695175   4.690779   0.000000
     6  H    3.249586   2.138368   1.098687   2.114796   4.211765
     7  H    3.711063   2.757006   2.139682   1.092331   4.718624
     8  H    4.646281   3.446204   2.134791   1.092466   5.717277
                    6          7          8
     6  H    0.000000
     7  H    3.100250   0.000000
     8  H    2.446136   1.866794   0.000000
 Stoichiometry    C4H4
 Framework group  C1[X(C4H4)]
 Deg. of freedom    18
 Full point group                 C1      NOp   1
 Largest Abelian subgroup         C1      NOp   1
 Largest concise Abelian subgroup C1      NOp   1
                         Standard orientation:                         
 ---------------------------------------------------------------------
 Center     Atomic      Atomic             Coordinates (Angstroms)
 Number     Number       Type             X           Y           Z
 ---------------------------------------------------------------------
      1          6           0       -1.928538   -0.195415    0.000000
      2          6           0       -0.734100    0.078819    0.000000
      3          6           0        0.623785    0.482377    0.000000
      4          6           0        1.691499   -0.352064    0.000001
      5          1           0       -2.998161   -0.249621    0.000001
      6          1           0        0.801913    1.566529    0.000001
      7          1           0        1.568509   -1.437449   -0.000001
      8          1           0        2.711864    0.038240   -0.000001
 ---------------------------------------------------------------------
 Rotational constants (GHZ):     53.5812899      4.6103673      4.2451004
 Standard basis: 6-31G(d,p) (6D, 7F)
 There are    80 symmetry adapted basis functions of A   symmetry.
 Integral buffers will be    131072 words long.
 Raffenetti 2 integral format.
 Two-electron integral symmetry is turned on.
    80 basis functions,   140 primitive gaussians,    80 cartesian basis functions
    14 alpha electrons       14 beta electrons
       nuclear repulsion energy        89.3940162870 Hartrees.
 NAtoms=    8 NActive=    8 NUniq=    8 SFac= 1.00D+00 NAtFMM=   60 NAOKFM=F Big=F
 One-electron integrals computed using PRISM.
 NBasis=    80 RedAO= T  NBF=    80
 NBsUse=    80 1.00D-06 NBFU=    80
 Initial guess read from the read-write file.
 B after Tr=     0.000000    0.000000    0.000000
         Rot=    1.000000    0.000000    0.000000    0.000000 Ang=   0.00 deg.
 Initial guess orbital symmetries:
       Occupied  (A) (A) (A) (A) (A) (A) (A) (A) (A) (A) (A) (A)
                 (A) (A)
       Virtual   (A) (A) (A) (A) (A) (A) (A) (A) (A) (A) (A) (A)
                 (A) (A) (A) (A) (A) (A) (A) (A) (A) (A) (A) (A)
                 (A) (A) (A) (A) (A) (A) (A) (A) (A) (A) (A) (A)
                 (A) (A) (A) (A) (A) (A) (A) (A) (A) (A) (A) (A)
                 (A) (A) (A) (A) (A) (A) (A) (A) (A) (A) (A) (A)
                 (A) (A) (A) (A) (A) (A)
 Harris functional with IExCor=  402 diagonalized for initial guess.
 ExpMin= 1.61D-01 ExpMax= 3.05D+03 ExpMxC= 4.57D+02 IAcc=1 IRadAn=         1 AccDes= 0.00D+00
 HarFok:  IExCor=  402 AccDes= 0.00D+00 IRadAn=         1 IDoV= 1
 ScaDFX=  1.000000  1.000000  1.000000  1.000000
 FoFCou: FMM=F IPFlag=           0 FMFlag=      100000 FMFlg1=           0
         NFxFlg=           0 DoJE=T BraDBF=F KetDBF=T FulRan=T
         Omega=  0.000000  0.000000  1.000000  0.000000  0.000000 ICntrl=     500 IOpCl=  0
         NMat0=    1 NMatS0=    1 NMatT0=    0 NMatD0=    1 NMtDS0=    0 NMtDT0=    0
         I1Cent=           4 NGrid=           0.
 Petite list used in FoFCou.
 Requested convergence on RMS density matrix=1.00D-08 within 128 cycles.
 Requested convergence on MAX density matrix=1.00D-06.
 Requested convergence on             energy=1.00D-06.
 No special actions if energy rises.
 Keep J ints in memory in canonical form, NReq=6256219.
 Integral accuracy reduced to 1.0D-05 until final iterations.
 Initial convergence to 1.0D-05 achieved.  Increase integral accuracy.
 SCF Done:  E(RB-LYP) =  -154.667846701     A.U. after   13 cycles
             Convg  =    0.9616D-08             -V/T =  2.0105
 Calling FoFJK, ICntrl=      2527 FMM=F ISym2X=0 I1Cent= 0 IOpClX= 0 NMat=1 NMatS=1 NMatT=0.
 ***** Axes restored to original set *****
 -------------------------------------------------------------------
 Center     Atomic                   Forces (Hartrees/Bohr)
 Number     Number              X              Y              Z
 -------------------------------------------------------------------
      1        6           0.005992517   -0.003937540    0.003431313
      2        6          -0.010826168   -0.001491750    0.001299956
      3        6           0.008499549    0.002246450   -0.001957886
      4        6          -0.000900263   -0.000094784    0.000083026
      5        1          -0.001384570    0.003357666   -0.002925972
      6        1          -0.000926135    0.000282826   -0.000246388
      7        1           0.000239805   -0.000158010    0.000137575
      8        1          -0.000694735   -0.000204858    0.000178376
 -------------------------------------------------------------------
 Cartesian Forces:  Max     0.010826168 RMS     0.003474110

 GradGradGradGradGradGradGradGradGradGradGradGradGradGradGradGradGradGrad
 Berny optimization.
 Using GEDIIS/GDIIS optimizer.
 Internal  Forces:  Max     0.009407265 RMS     0.003103712
 Search for a local minimum.
 Step number   6 out of a maximum of   31
 All quantities printed in internal units (Hartrees-Bohrs-Radians)
 Mixed Optimization -- RFO/linear search
 Update second derivatives using D2CorX and points    1    2    4    3    6
                                                      5
 DE=  1.01D-03 DEPred=-3.92D-04 R=-2.57D+00
 Trust test=-2.57D+00 RLast= 2.52D-01 DXMaxT set to 1.26D-01
 ITU= -1  0 -1  1  1  0
 Use linear search instead of GDIIS.
 Quartic linear search produced a step of -0.82159.
 Iteration  1 RMS(Cart)=  0.07796343 RMS(Int)=  0.00828891
 Iteration  2 RMS(Cart)=  0.00898139 RMS(Int)=  0.00005011
 Iteration  3 RMS(Cart)=  0.00006730 RMS(Int)=  0.00000001
 Iteration  4 RMS(Cart)=  0.00000001 RMS(Int)=  0.00000000
 Variable       Old X    -DE/DX   Delta X   Delta X   Delta X     New X
                                 (Linear)    (Quad)   (Total)
    R1        2.31589  -0.00457  -0.00161   0.00000  -0.00161   2.31427
    R2        2.02389   0.00036   0.00054   0.00000   0.00054   2.02443
    R3        2.67696   0.00618   0.00707   0.00000   0.00707   2.68403
    R4        2.56077  -0.00129  -0.00300   0.00000  -0.00300   2.55777
    R5        2.07622  -0.00073  -0.00384   0.00000  -0.00384   2.07238
    R6        2.06421  -0.00028  -0.00098   0.00000  -0.00098   2.06322
    R7        2.06446  -0.00067   0.00067   0.00000   0.00067   2.06513
    A1        2.18934  -0.00013  -0.01779   0.00000  -0.01779   2.17155
    A2        2.02253  -0.00064  -0.00257   0.00000  -0.00257   2.01995
    A3        2.07132   0.00077   0.02036   0.00000   0.02036   2.09168
    A4        2.12134   0.00042  -0.00025   0.00000  -0.00025   2.12109
    A5        2.11288  -0.00056  -0.00005   0.00000  -0.00005   2.11283
    A6        2.04897   0.00013   0.00030   0.00000   0.00030   2.04927
    A7        3.31664  -0.00941  -0.20465   0.00000  -0.20465   3.11199
    A8        3.20479  -0.00710  -0.01495   0.00000  -0.01495   3.18984
    A9        3.14159   0.00000   0.00000   0.00000   0.00000   3.14160
   A10        3.14159   0.00000   0.00000   0.00000   0.00000   3.14159
    D1        0.00000   0.00000   0.00000   0.00000   0.00000   0.00000
    D2        3.14159   0.00000   0.00000   0.00000   0.00000   3.14159
    D3       -3.14159   0.00000   0.00000   0.00000   0.00000  -3.14159
    D4        0.00000   0.00000   0.00000   0.00000   0.00000   0.00000
         Item               Value     Threshold  Converged?
 Maximum Force            0.009407     0.000450     NO 
 RMS     Force            0.003104     0.000300     NO 
 Maximum Displacement     0.204982     0.001800     NO 
 RMS     Displacement     0.081728     0.001200     NO 
 Predicted change in Energy=-4.548937D-05
 GradGradGradGradGradGradGradGradGradGradGradGradGradGradGradGradGradGrad

                          Input orientation:                          
 ---------------------------------------------------------------------
 Center     Atomic      Atomic             Coordinates (Angstroms)
 Number     Number       Type             X           Y           Z
 ---------------------------------------------------------------------
      1          6           0        1.125302    0.060581   -0.006316
      2          6           0        2.348095    0.111550   -0.050729
      3          6           0        3.768386    0.119027   -0.057242
      4          6           0        4.525669    0.964789   -0.794268
      5          1           0        0.054373    0.039882    0.011722
      6          1           0        4.251447   -0.623222    0.589576
      7          1           0        4.073772    1.714101   -1.447238
      8          1           0        5.617026    0.922182   -0.757135
 ---------------------------------------------------------------------
                    Distance matrix (angstroms):
                    1          2          3          4          5
     1  C    0.000000
     2  C    1.224661   0.000000
     3  C    2.644221   1.420326   0.000000
     4  C    3.605684   2.454118   1.353513   0.000000
     5  H    1.071281   2.295692   3.715497   4.636547   0.000000
     6  H    3.255066   2.138370   1.096656   2.124147   4.288246
     7  H    3.674760   2.737949   2.137665   1.091810   4.592074
     8  H    4.634832   3.441227   2.133630   1.092819   5.684426
                    6          7          8
     6  H    0.000000
     7  H    3.105359   0.000000
     8  H    2.463069   1.866818   0.000000
 Stoichiometry    C4H4
 Framework group  C1[X(C4H4)]
 Deg. of freedom    18
 Full point group                 C1      NOp   1
 Largest Abelian subgroup         C1      NOp   1
 Largest concise Abelian subgroup C1      NOp   1
                         Standard orientation:                         
 ---------------------------------------------------------------------
 Center     Atomic      Atomic             Coordinates (Angstroms)
 Number     Number       Type             X           Y           Z
 ---------------------------------------------------------------------
      1          6           0       -1.925150   -0.170468    0.000000
      2          6           0       -0.732117    0.106059    0.000000
      3          6           0        0.634449    0.493129   -0.000001
      4          6           0        1.674863   -0.372628    0.000001
      5          1           0       -2.961148   -0.443143    0.000000
      6          1           0        0.823381    1.573388    0.000001
      7          1           0        1.518469   -1.453179   -0.000002
      8          1           0        2.707028   -0.013617   -0.000001
 ---------------------------------------------------------------------
 Rotational constants (GHZ):     51.1209816      4.6558619      4.2672230
 Standard basis: 6-31G(d,p) (6D, 7F)
 There are    80 symmetry adapted basis functions of A   symmetry.
 Integral buffers will be    131072 words long.
 Raffenetti 2 integral format.
 Two-electron integral symmetry is turned on.
    80 basis functions,   140 primitive gaussians,    80 cartesian basis functions
    14 alpha electrons       14 beta electrons
       nuclear repulsion energy        89.4487280817 Hartrees.
 NAtoms=    8 NActive=    8 NUniq=    8 SFac= 1.00D+00 NAtFMM=   60 NAOKFM=F Big=F
 One-electron integrals computed using PRISM.
 NBasis=    80 RedAO= T  NBF=    80
 NBsUse=    80 1.00D-06 NBFU=    80
 Initial guess read from the read-write file.
 B after Tr=     0.000000    0.000000    0.000000
         Rot=    1.000000    0.000000    0.000000    0.000000 Ang=   0.00 deg.
 Initial guess orbital symmetries:
       Occupied  (A) (A) (A) (A) (A) (A) (A) (A) (A) (A) (A) (A)
                 (A) (A)
       Virtual   (A) (A) (A) (A) (A) (A) (A) (A) (A) (A) (A) (A)
                 (A) (A) (A) (A) (A) (A) (A) (A) (A) (A) (A) (A)
                 (A) (A) (A) (A) (A) (A) (A) (A) (A) (A) (A) (A)
                 (A) (A) (A) (A) (A) (A) (A) (A) (A) (A) (A) (A)
                 (A) (A) (A) (A) (A) (A) (A) (A) (A) (A) (A) (A)
                 (A) (A) (A) (A) (A) (A)
 Harris functional with IExCor=  402 diagonalized for initial guess.
 ExpMin= 1.61D-01 ExpMax= 3.05D+03 ExpMxC= 4.57D+02 IAcc=1 IRadAn=         1 AccDes= 0.00D+00
 HarFok:  IExCor=  402 AccDes= 0.00D+00 IRadAn=         1 IDoV= 1
 ScaDFX=  1.000000  1.000000  1.000000  1.000000
 FoFCou: FMM=F IPFlag=           0 FMFlag=      100000 FMFlg1=           0
         NFxFlg=           0 DoJE=T BraDBF=F KetDBF=T FulRan=T
         Omega=  0.000000  0.000000  1.000000  0.000000  0.000000 ICntrl=     500 IOpCl=  0
         NMat0=    1 NMatS0=    1 NMatT0=    0 NMatD0=    1 NMtDS0=    0 NMtDT0=    0
         I1Cent=           4 NGrid=           0.
 Petite list used in FoFCou.
 Requested convergence on RMS density matrix=1.00D-08 within 128 cycles.
 Requested convergence on MAX density matrix=1.00D-06.
 Requested convergence on             energy=1.00D-06.
 No special actions if energy rises.
 Keep J ints in memory in canonical form, NReq=6256219.
 Integral accuracy reduced to 1.0D-05 until final iterations.
 Initial convergence to 1.0D-05 achieved.  Increase integral accuracy.
 SCF Done:  E(RB-LYP) =  -154.668903433     A.U. after   13 cycles
             Convg  =    0.3190D-08             -V/T =  2.0105
 Calling FoFJK, ICntrl=      2527 FMM=F ISym2X=0 I1Cent= 0 IOpClX= 0 NMat=1 NMatS=1 NMatT=0.
 ***** Axes restored to original set *****
 -------------------------------------------------------------------
 Center     Atomic                   Forces (Hartrees/Bohr)
 Number     Number              X              Y              Z
 -------------------------------------------------------------------
      1        6           0.003977932    0.000246669   -0.000214877
      2        6          -0.008755488   -0.000596587    0.000519881
      3        6           0.002851281    0.000634068   -0.000552862
      4        6           0.001324379   -0.000302739    0.000264329
      5        1           0.000219581    0.000032986   -0.000028775
      6        1           0.001079098    0.000142950   -0.000124500
      7        1           0.000085217   -0.000013289    0.000011421
      8        1          -0.000781999   -0.000144058    0.000125381
 -------------------------------------------------------------------
 Cartesian Forces:  Max     0.008755488 RMS     0.002100345

 GradGradGradGradGradGradGradGradGradGradGradGradGradGradGradGradGradGrad
 Berny optimization.
 Using GEDIIS/GDIIS optimizer.
 Internal  Forces:  Max     0.004560782 RMS     0.001448546
 Search for a local minimum.
 Step number   7 out of a maximum of   31
 All quantities printed in internal units (Hartrees-Bohrs-Radians)
 Mixed Optimization -- RFO/linear search
 Update second derivatives using D2CorX and points    1    2    4    3    6
                                                      5    7
 ITU=  0 -1  0 -1  1  1  0
 Use linear search instead of GDIIS.
     Eigenvalues ---    0.00501   0.00565   0.02931   0.02931   0.02931
     Eigenvalues ---    0.03121   0.09462   0.12202   0.16005   0.16029
     Eigenvalues ---    0.19089   0.30552   0.35156   0.35335   0.35489
     Eigenvalues ---    0.37883   0.57548   0.95855
 RFO step:  Lambda=-1.15367882D-04 EMin= 5.01385780D-03
 Quartic linear search produced a step of -0.00775.
 Iteration  1 RMS(Cart)=  0.00764514 RMS(Int)=  0.00002199
 Iteration  2 RMS(Cart)=  0.00002586 RMS(Int)=  0.00000000
 Iteration  3 RMS(Cart)=  0.00000000 RMS(Int)=  0.00000000
 Variable       Old X    -DE/DX   Delta X   Delta X   Delta X     New X
                                 (Linear)    (Quad)   (Total)
    R1        2.31427  -0.00421   0.00000  -0.00412  -0.00412   2.31015
    R2        2.02443  -0.00022   0.00000  -0.00074  -0.00074   2.02369
    R3        2.68403   0.00456   0.00001   0.01353   0.01354   2.69757
    R4        2.55777  -0.00015  -0.00001   0.00008   0.00007   2.55784
    R5        2.07238   0.00031  -0.00001   0.00131   0.00131   2.07369
    R6        2.06322  -0.00005   0.00000  -0.00004  -0.00004   2.06318
    R7        2.06513  -0.00077   0.00000  -0.00217  -0.00217   2.06296
    A1        2.17155   0.00116  -0.00003   0.00716   0.00713   2.17868
    A2        2.01995   0.00051   0.00000   0.00477   0.00477   2.02472
    A3        2.09168  -0.00167   0.00003  -0.01193  -0.01190   2.07978
    A4        2.12109   0.00026   0.00000   0.00145   0.00145   2.12253
    A5        2.11283  -0.00037   0.00000  -0.00212  -0.00212   2.11071
    A6        2.04927   0.00011   0.00000   0.00068   0.00068   2.04995
    A7        3.11199  -0.00008  -0.00034   0.00308   0.00274   3.11473
    A8        3.18984  -0.00040  -0.00003  -0.00620  -0.00623   3.18362
    A9        3.14160   0.00000   0.00000   0.00000   0.00000   3.14159
   A10        3.14159   0.00000   0.00000   0.00000   0.00000   3.14159
    D1        0.00000   0.00000   0.00000  -0.00001  -0.00001   0.00000
    D2        3.14159   0.00000   0.00000   0.00000   0.00000  -3.14159
    D3       -3.14159   0.00000   0.00000   0.00000   0.00000   3.14159
    D4        0.00000   0.00000   0.00000   0.00001   0.00001   0.00000
         Item               Value     Threshold  Converged?
 Maximum Force            0.004561     0.000450     NO 
 RMS     Force            0.001449     0.000300     NO 
 Maximum Displacement     0.016320     0.001800     NO 
 RMS     Displacement     0.007648     0.001200     NO 
 Predicted change in Energy=-5.771508D-05
 GradGradGradGradGradGradGradGradGradGradGradGradGradGradGradGradGradGrad

[...]
     4   6    -0.18  -0.01   0.00     0.00   0.00   0.17     0.00   0.00   0.00
     5   1     0.22   0.05   0.00     0.00   0.00  -0.01     0.00   0.00   0.00
     6   1    -0.06  -0.14   0.00     0.00   0.00   0.08     0.00   0.00  -0.80
     7   1     0.44  -0.09   0.00     0.00   0.00  -0.68     0.00   0.00  -0.51
     8   1    -0.42   0.64   0.00     0.00   0.00  -0.70     0.00   0.00   0.31
                    10                     11                     12
                     A                      A                      A
 Frequencies --  1087.5067              1290.9442              1416.1776
 Red. masses --     1.6875                 1.2896                 1.2403
 Frc consts  --     1.1759                 1.2663                 1.4656
 IR Inten    --     3.9960                 0.3969                 1.2593
  Atom  AN      X      Y      Z        X      Y      Z        X      Y      Z
     1   6    -0.08  -0.02   0.00     0.00   0.00   0.00    -0.03  -0.01   0.00
     2   6    -0.02  -0.08   0.00     0.00   0.02   0.00    -0.01   0.01   0.00
     3   6     0.11   0.15   0.00     0.01   0.10   0.00     0.13  -0.04   0.00
     4   6    -0.08  -0.08   0.00     0.02  -0.12   0.00     0.00  -0.03   0.00
     5   1    -0.11   0.03   0.00     0.00   0.00   0.00    -0.03  -0.02   0.00
     6   1     0.64   0.05   0.00    -0.82   0.26   0.00    -0.33   0.05   0.00
     7   1     0.51  -0.16   0.00     0.44  -0.19   0.00    -0.58   0.07   0.00
     8   1    -0.24   0.42   0.00     0.01  -0.04   0.00    -0.27   0.67   0.00
                    13                     14                     15
                     A                      A                      A
 Frequencies --  1620.3565              2144.0197              3063.1956
 Red. masses --     3.8254                 6.2680                 1.0851
 Frc consts  --     5.9176                16.9760                 5.9990
 IR Inten    --     7.9236                 0.1683                11.0331
  Atom  AN      X      Y      Z        X      Y      Z        X      Y      Z
     1   6    -0.04  -0.01   0.00    -0.38  -0.09   0.00     0.00   0.00   0.00
     2   6    -0.01   0.02   0.00     0.54   0.13   0.00     0.00   0.00   0.00
     3   6     0.32  -0.17   0.00    -0.09  -0.03   0.00    -0.01  -0.08   0.00
     4   6    -0.28   0.21   0.00     0.00   0.00   0.00     0.01   0.00   0.00
     5   1    -0.06  -0.04   0.00    -0.70  -0.17   0.00     0.00   0.00   0.00
     6   1    -0.38  -0.08   0.00    -0.04  -0.03   0.00     0.18   0.97   0.00
     7   1     0.56   0.13   0.00     0.01   0.00   0.00     0.01   0.03   0.00
     8   1    -0.06  -0.51   0.00     0.00  -0.02   0.00    -0.13  -0.05   0.00
                    16                     17                     18
                     A                      A                      A
 Frequencies --  3091.4942              3181.5493              3415.1610
 Red. masses --     1.0603                 1.1174                 1.1527
 Frc consts  --     5.9708                 6.6641                 7.9210
 IR Inten    --     4.2094                11.2371                60.1788
  Atom  AN      X      Y      Z        X      Y      Z        X      Y      Z
     1   6     0.00   0.00   0.00     0.00   0.00   0.00    -0.11  -0.03   0.00
     2   6     0.00   0.00   0.00     0.00   0.00   0.00     0.03   0.01   0.00
     3   6     0.00   0.01   0.00     0.00   0.01   0.00     0.00   0.00   0.00
     4   6     0.05  -0.04   0.00     0.06   0.08   0.00     0.00   0.00   0.00
     5   1     0.00   0.00   0.00     0.00   0.00   0.00     0.96   0.25   0.00
     6   1    -0.02  -0.11   0.00    -0.01  -0.08   0.00     0.00   0.00   0.00
     7   1     0.11   0.71   0.00    -0.09  -0.69   0.00     0.00   0.00   0.00
     8   1    -0.64  -0.24   0.00    -0.67  -0.23   0.00     0.00   0.00   0.00

 -------------------
 - Thermochemistry -
 -------------------
 Temperature   298.150 Kelvin.  Pressure   1.00000 Atm.
 Atom     1 has atomic number  6 and mass  12.00000
 Atom     2 has atomic number  6 and mass  12.00000
 Atom     3 has atomic number  6 and mass  12.00000
 Atom     4 has atomic number  6 and mass  12.00000
 Atom     5 has atomic number  1 and mass   1.00783
 Atom     6 has atomic number  1 and mass   1.00783
 Atom     7 has atomic number  1 and mass   1.00783
 Atom     8 has atomic number  1 and mass   1.00783
 Molecular mass:    52.03130 amu.
 Principal axes and moments of inertia in atomic units:
                           1         2         3
     Eigenvalues --    35.15598 389.22937 424.38535
           X            0.99999   0.00368   0.00000
           Y           -0.00368   0.99999   0.00000
           Z            0.00000   0.00000   1.00000
 This molecule is an asymmetric top.
 Rotational symmetry number  1.
 Rotational temperatures (Kelvin)      2.46370     0.22253     0.20409
 Rotational constants (GHZ):          51.33526     4.63670     4.25260
 Zero-point vibrational energy     155189.9 (Joules/Mol)
                                   37.09128 (Kcal/Mol)
 Warning -- explicit consideration of   5 degrees of freedom as
           vibrations may cause significant error
 Vibrational temperatures:    315.67   470.44   764.26   767.82   840.09
          (Kelvin)            994.20  1261.88  1290.00  1403.60  1564.68
                             1857.38  2037.56  2331.33  3084.76  4407.25
                             4447.97  4577.53  4913.65
 
 Zero-point correction=                           0.059109 (Hartree/Particle)
 Thermal correction to Energy=                    0.063750
 Thermal correction to Enthalpy=                  0.064694
 Thermal correction to Gibbs Free Energy=         0.032973
 Sum of electronic and zero-point Energies=           -154.609847
 Sum of electronic and thermal Energies=              -154.605206
 Sum of electronic and thermal Enthalpies=            -154.604262
 Sum of electronic and thermal Free Energies=         -154.635983
 
                     E (Thermal)             CV                S
                      KCal/Mol        Cal/Mol-Kelvin    Cal/Mol-Kelvin
 Total                   40.003             15.705             66.763
 Electronic               0.000              0.000              0.000
 Translational            0.889              2.981             37.771
 Rotational               0.889              2.981             23.278
 Vibrational             38.226              9.744              5.714
 Vibration     1          0.647              1.812              1.964
 Vibration     2          0.711              1.622              1.275
 Vibration     3          0.886              1.181              0.585
 Vibration     4          0.889              1.176              0.579
 Vibration     5          0.941              1.066              0.478
                       Q            Log10(Q)             Ln(Q)
 Total Bot       0.681739D-15        -15.166382        -34.921885
 Total V=0       0.105120D+13         12.021683         27.680949
 Vib (Bot)       0.169409D-26        -26.771063        -61.642651
 Vib (Bot)    1  0.901772D+00         -0.044903         -0.103394
 Vib (Bot)    2  0.572501D+00         -0.242224         -0.557741
 Vib (Bot)    3  0.300746D+00         -0.521801         -1.201491
 Vib (Bot)    4  0.298661D+00         -0.524822         -1.208447
 Vib (Bot)    5  0.259957D+00         -0.585098         -1.347238
 Vib (V=0)       0.261217D+01          0.417002          0.960183
 Vib (V=0)    1  0.153111D+01          0.185007          0.425994
 Vib (V=0)    2  0.126010D+01          0.100406          0.231194
 Vib (V=0)    3  0.108348D+01          0.034821          0.080177
 Vib (V=0)    4  0.108241D+01          0.034391          0.079188
 Vib (V=0)    5  0.106354D+01          0.026754          0.061603
 Electronic      0.100000D+01          0.000000          0.000000
 Translational   0.147520D+08          7.168852         16.506892
 Rotational      0.272790D+05          4.435829         10.213874
 ***** Axes restored to original set *****
 -------------------------------------------------------------------
 Center     Atomic                   Forces (Hartrees/Bohr)
 Number     Number              X              Y              Z
 -------------------------------------------------------------------
      1        6          -0.000118565   -0.000002790    0.000002723
      2        6           0.000086729    0.000000481   -0.000001859
      3        6           0.000127221   -0.000037929    0.000033826
      4        6          -0.000142081    0.000064796   -0.000056398
      5        1          -0.000014046   -0.000001740    0.000001833
      6        1          -0.000026900    0.000011519   -0.000009996
      7        1           0.000046268   -0.000006087    0.000005357
      8        1           0.000041374   -0.000028249    0.000024514
 -------------------------------------------------------------------
 Cartesian Forces:  Max     0.000142081 RMS     0.000055681

 GradGradGradGradGradGradGradGradGradGradGradGradGradGradGradGradGradGrad
 Berny optimization.
 Internal  Forces:  Max     0.000132757 RMS     0.000041090
 Search for a local minimum.
 Step number   1 out of a maximum of    2
 All quantities printed in internal units (Hartrees-Bohrs-Radians)
 Second derivative matrix not updated -- analytic derivatives used.
 ITU=  0
     Eigenvalues ---    0.00978   0.02860   0.03127   0.03286   0.04836
     Eigenvalues ---    0.05801   0.09044   0.10185   0.10898   0.12727
     Eigenvalues ---    0.15302   0.33189   0.34719   0.34857   0.37373
     Eigenvalues ---    0.39950   0.57245   1.01438
 Angle between quadratic step and forces=  40.81 degrees.
 Linear search not attempted -- first point.
 Iteration  1 RMS(Cart)=  0.00040376 RMS(Int)=  0.00000011
 Iteration  2 RMS(Cart)=  0.00000011 RMS(Int)=  0.00000001
 Variable       Old X    -DE/DX   Delta X   Delta X   Delta X     New X
                                 (Linear)    (Quad)   (Total)
    R1        2.30962   0.00013   0.00000   0.00013   0.00013   2.30974
    R2        2.02381   0.00001   0.00000   0.00004   0.00004   2.02385
    R3        2.69506   0.00005   0.00000   0.00015   0.00015   2.69520
    R4        2.55692   0.00000   0.00000  -0.00001  -0.00001   2.55692
    R5        2.07331  -0.00003   0.00000  -0.00009  -0.00009   2.07322
    R6        2.06323  -0.00003   0.00000  -0.00011  -0.00011   2.06312
    R7        2.06272   0.00004   0.00000   0.00015   0.00015   2.06288
    A1        2.17815   0.00000   0.00000   0.00004   0.00004   2.17819
    A2        2.02444  -0.00002   0.00000  -0.00014  -0.00014   2.02430
    A3        2.08060   0.00002   0.00000   0.00011   0.00011   2.08070
    A4        2.12418   0.00008   0.00000   0.00066   0.00066   2.12484
    A5        2.10879  -0.00007   0.00000  -0.00063  -0.00063   2.10816
    A6        2.05021   0.00000   0.00000  -0.00003  -0.00003   2.05018
    A7        3.11432   0.00000   0.00000   0.00007   0.00007   3.11440
    A8        3.18415   0.00000   0.00000   0.00003   0.00003   3.18418
    A9        3.14159   0.00000   0.00000   0.00000   0.00000   3.14159
   A10        3.14161   0.00000   0.00000  -0.00002  -0.00002   3.14159
    D1        0.00000   0.00000   0.00000   0.00000   0.00000   0.00000
    D2        3.14159   0.00000   0.00000   0.00000   0.00000   3.14159
    D3        3.14159   0.00000   0.00000   0.00000   0.00000   3.14159
    D4        0.00000   0.00000   0.00000   0.00000   0.00000   0.00000
         Item               Value     Threshold  Converged?
 Maximum Force            0.000133     0.000450     YES
 RMS     Force            0.000041     0.000300     YES
 Maximum Displacement     0.001049     0.001800     YES
 RMS     Displacement     0.000404     0.001200     YES
 Predicted change in Energy=-6.960329D-08
 Optimization completed.
    -- Stationary point found.
                           ----------------------------
                           !   Optimized Parameters   !
                           ! (Angstroms and Degrees)  !
 --------------------------                            --------------------------
 ! Name  Definition              Value          Derivative Info.                !
 --------------------------------------------------------------------------------
 ! R1    R(1,2)                  1.2222         -DE/DX =    0.0001              !
 ! R2    R(1,5)                  1.071          -DE/DX =    0.0                 !
 ! R3    R(2,3)                  1.4262         -DE/DX =    0.0                 !
 ! R4    R(3,4)                  1.3531         -DE/DX =    0.0                 !
 ! R5    R(3,6)                  1.0972         -DE/DX =    0.0                 !
 ! R6    R(4,7)                  1.0918         -DE/DX =    0.0                 !
 ! R7    R(4,8)                  1.0915         -DE/DX =    0.0                 !
 ! A1    A(2,3,4)              124.7988         -DE/DX =    0.0                 !
 ! A2    A(2,3,6)              115.9919         -DE/DX =    0.0                 !
 ! A3    A(4,3,6)              119.2093         -DE/DX =    0.0                 !
 ! A4    A(3,4,7)              121.7068         -DE/DX =    0.0001              !
 ! A5    A(3,4,8)              120.8246         -DE/DX =   -0.0001              !
 ! A6    A(7,4,8)              117.4686         -DE/DX =    0.0                 !
 ! A7    L(2,1,5,7,-1)         178.4376         -DE/DX =    0.0                 !
 ! A8    L(1,2,3,7,-1)         182.4382         -DE/DX =    0.0                 !
 ! A9    L(2,1,5,7,-2)         179.9998         -DE/DX =    0.0                 !
 ! A10   L(1,2,3,7,-2)         180.0012         -DE/DX =    0.0                 !
 ! D1    D(2,3,4,7)              0.0            -DE/DX =    0.0                 !
 ! D2    D(2,3,4,8)            180.0            -DE/DX =    0.0                 !
 ! D3    D(6,3,4,7)            180.0            -DE/DX =    0.0                 !
 ! D4    D(6,3,4,8)              0.0            -DE/DX =    0.0                 !
 --------------------------------------------------------------------------------
 GradGradGradGradGradGradGradGradGradGradGradGradGradGradGradGradGradGrad

 1\1\GINC-ABCSIM\Freq\RBLYP\6-31G(d,p)\C4H4\MATEUS\10-Jul-2019\0\\#N Ge
 om=AllCheck Guess=TCheck SCRF=Check GenChk RBLYP/6-31G(d,p) Freq\\mole
 cule_/home/mateus/github/db_singletoxygen 2\\0,1\C,1.1209387208,0.0595
 939081,-0.0054523671\C,2.3413697459,0.109105011,-0.0485822951\C,3.7674
 42523,0.1211370024,-0.0590782203\C,4.5271449716,0.965257195,-0.7946744
 939\H,0.0503581846,0.0382065856,0.0131684287\H,4.2592724381,-0.6182512
 25,0.5852421675\H,4.0806996304,1.71642791,-1.4492629164\H,5.6168437855
 ,0.9174136131,-0.7529903034\\Version=EM64L-G09RevC.01\State=1-A\HF=-15
 4.6689559\RMSD=5.297e-10\RMSF=5.568e-05\ZeroPoint=0.0591087\Thermal=0.
 0637496\Dipole=0.1109929,0.0196381,-0.0171201\DipoleDeriv=-0.4084034,-
 0.0417077,0.0363489,-0.013044,-0.2547086,-0.0131314,0.0113699,-0.01313
 07,-0.2583354,-0.0112248,-0.0110744,0.0096506,0.0574658,-0.0204865,0.0
 538453,-0.0500866,0.053843,-0.0056159,0.3493678,0.0268745,-0.0234232,-
 0.0694176,0.0283563,-0.1152814,0.0604946,-0.115281,-0.0034759,-0.03722
 69,-0.0647212,0.0563973,-0.0673047,-0.0783074,-0.1419099,0.0586507,-0.
 1419098,-0.1174916,0.2223193,0.0065492,-0.0057071,0.0051593,0.200975,-
 0.0017602,-0.0044948,-0.0017598,0.2004885,-0.036246,0.0366563,-0.03194
 28,0.0472901,0.0228243,0.0868203,-0.0412081,0.0868209,0.0467964,0.0147
 452,0.0468058,-0.040787,0.0248106,0.0268067,0.0901946,-0.0216191,0.090
 1945,0.0517111,-0.0933312,0.0006176,-0.0005367,0.0150406,0.0745401,0.0
 412228,-0.0131066,0.0412228,0.0859229\Polar=70.8808484,8.9768682,26.01
 88012,-7.8226158,-9.4868208,23.3994038\PG=C01 [X(C4H4)]\NImag=0\\1.419
 61273,0.04426707,0.03331370,-0.03855872,-0.00239582,0.03265101,-0.9914
 7265,-0.03520879,0.03067024,1.33823303,-0.03565941,-0.02479050,0.00024
 849,0.04046111,0.08457254,0.03106446,0.00024851,-0.02472102,-0.0352497
 4,-0.01237975,0.08115355,-0.02889934,-0.00006942,0.00006124,-0.2861359
 2,-0.00018689,0.00016325,0.63110733,-0.00926679,0.00451219,-0.00045473
 ,0.01506137,-0.06629462,0.01061174,0.06273876,0.45493301,0.00807436,-0
 .00045469,0.00438667,-0.01312275,0.01061175,-0.06336455,-0.05467550,-0
 .29587222,0.37324016,0.00576957,-0.00021885,0.00019074,-0.04549713,-0.
 02199624,0.01916836,-0.21215811,-0.13885913,0.12100729,0.67234967,0.01
 001068,0.00057837,0.00098137,-0.02068076,0.00491354,-0.00074882,-0.126
 80910,-0.23298278,0.16512178,0.05526140,0.45557320,-0.00872361,0.00098
 134,0.00084925,0.01802210,-0.00074871,0.00470667,0.11050648,0.16512191
 ,-0.18739276,-0.04816080,-0.31504928,0.36858520,-0.40407445,-0.0081699
 5,0.00711362,0.00386473,0.00030490,-0.00026557,0.00095964,0.00004720,-
 0.00004126,-0.00005028,-0.00009691,0.00008445,0.39922983,-0.00655000,-
 0.01380671,0.00143243,-0.00144025,-0.00286299,-0.00011311,-0.00024567,
 0.00656846,-0.00034735,0.00094166,-0.00017444,0.00000471,0.00792188,0.
 01046765,0.00570208,0.00143242,-0.01341091,0.00125496,-0.00011312,-0.0
 0289426,0.00021407,-0.00034733,0.00647259,-0.00082058,0.00000473,-0.00
 017315,-0.00689745,-0.00089980,0.01021894,-0.00073366,-0.00064939,0.00
 056586,-0.02030505,0.01952990,-0.01701870,-0.10231521,0.08015808,-0.06
 985151,0.01112972,-0.01262386,0.01100075,0.00004888,-0.00070462,0.0006
 1403,0.11254094,-0.00151779,0.00005767,0.00065521,0.00233066,0.0036944
 3,-0.00090096,0.07534203,-0.16132506,0.10932117,0.00944535,-0.01046597
 ,0.01404893,0.00001200,-0.00007661,0.00007655,-0.08330119,0.16678307,0
 .00132270,0.00065521,0.00023866,-0.00203086,-0.00090113,0.00344571,-0.
 06565465,0.10932119,-0.13113900,-0.00823101,0.01404907,-0.00658688,-0.
 00001046,0.00007656,-0.00005549,0.07259032,-0.12558933,0.13210509,-0.0
 0000103,0.00019918,-0.00017357,0.00169895,-0.00033077,0.00028818,0.009
 93060,-0.01316939,0.01147613,-0.10434008,0.08078533,-0.07039810,-0.000
 00907,-0.00002722,0.00002372,-0.00121086,-0.00229356,0.00199877,0.1006
 2649,-0.00054117,0.00018320,-0.00009327,0.00114025,-0.00249971,-0.0043
 6236,0.00947879,-0.00883356,0.01207704,0.07746007,-0.17247857,0.122038
 06,-0.00000392,0.00013644,0.00029723,-0.00240059,0.00353830,0.00655365
 ,-0.08349306,0.17799896,0.00047156,-0.00009328,0.00015745,-0.00099366,
 -0.00436234,-0.00370420,-0.00826018,0.01207716,-0.00549892,-0.06750035
 ,0.12203808,-0.13878121,0.00000341,0.00029723,0.00021851,0.00209206,0.
 00655365,0.00534780,0.07275764,-0.13659885,0.14028108,-0.00020118,-0.0
 0014985,0.00013059,-0.00038598,-0.00212259,0.00184976,-0.01248899,0.00
 328989,-0.00286677,-0.32720337,0.01415322,-0.01233127,0.00003071,0.000
 10422,-0.00009083,0.00084524,-0.00001750,0.00001519,-0.00669500,-0.001
 64037,0.00142954,0.34609855,-0.00074259,-0.00004793,-0.00037368,-0.001
 66358,0.00326732,0.00764476,-0.02024851,0.00342236,-0.00045749,0.01796
 573,-0.04496335,0.01360303,-0.00001519,-0.00025180,-0.00045068,-0.0000
 0833,-0.00220583,-0.00416522,0.01832950,0.00195495,0.00008835,-0.01361
 702,0.03882428,0.00064718,-0.00037370,-0.00015111,0.00144971,0.0076448
 2,0.00537811,0.01764529,-0.00045772,0.00329582,-0.01565365,0.01360307,
 -0.04120712,0.00001325,-0.00045068,-0.00037623,0.00000719,-0.00416522,
 -0.00335589,-0.01597277,0.00008851,0.00197950,0.01186379,-0.01588907,0
 .03443693\\0.00011856,0.00000279,-0.00000272,-0.00008673,-0.00000048,0
 .00000186,-0.00012722,0.00003793,-0.00003383,0.00014208,-0.00006480,0.
 00005640,0.00001405,0.00000174,-0.00000183,0.00002690,-0.00001152,0.00
 001000,-0.00004627,0.00000609,-0.00000536,-0.00004137,0.00002825,-0.00
 002451\\\@


 MORNING PEOPLE ARE USUALLY ADMIRED AS EARLY BIRDS.
 RECALL BEN FRANKLIN'S APHORISM THAT THE EARLY BIRD GETS THE WORM.
 I IDENTIFY WITH THE WORM. --  CRAIG JAGGER, MINNEAPOLIS, KS.
 Job cpu time:  0 days  0 hours  0 minutes 49.1 seconds.
 File lengths (MBytes):  RWF=     10 Int=      0 D2E=      0 Chk=      2 Scr=      1
 Normal termination of Gaussian 09 at Wed Jul 10 16:52:44 2019.
