 Entering Gaussian System, Link 0=g09
 Initial command:
 /opt/g09/l1.exe /opt/g09/Gau-4698.inp -scrdir=/opt/g09/
 Entering Link 1 = /opt/g09/l1.exe PID=      4700.
  
 Copyright (c) 1988,1990,1992,1993,1995,1998,2003,2009,2011,
            Gaussian, Inc.  All Rights Reserved.
  
 This is part of the Gaussian(R) 09 program.  It is based on
 the Gaussian(R) 03 system (copyright 2003, Gaussian, Inc.),
 the Gaussian(R) 98 system (copyright 1998, Gaussian, Inc.),
 the Gaussian(R) 94 system (copyright 1995, Gaussian, Inc.),
 the Gaussian 92(TM) system (copyright 1992, Gaussian, Inc.),
 the Gaussian 90(TM) system (copyright 1990, Gaussian, Inc.),
 the Gaussian 88(TM) system (copyright 1988, Gaussian, Inc.),
 the Gaussian 86(TM) system (copyright 1986, Carnegie Mellon
 University), and the Gaussian 82(TM) system (copyright 1983,
 Carnegie Mellon University). Gaussian is a federally registered
 trademark of Gaussian, Inc.
  
 This software contains proprietary and confidential information,
 including trade secrets, belonging to Gaussian, Inc.
  
 This software is provided under written license and may be
 used, copied, transmitted, or stored only in accord with that
 written license.
  
 The following legend is applicable only to US Government
 contracts under FAR:
  
                    RESTRICTED RIGHTS LEGEND
  
 Use, reproduction and disclosure by the US Government is
 subject to restrictions as set forth in subparagraphs (a)
 and (c) of the Commercial Computer Software - Restricted
 Rights clause in FAR 52.227-19.
  
 Gaussian, Inc.
 340 Quinnipiac St., Bldg. 40, Wallingford CT 06492
  
  
 ---------------------------------------------------------------
 Warning -- This program may not be used in any manner that
 competes with the business of Gaussian, Inc. or will provide
 assistance to any competitor of Gaussian, Inc.  The licensee
 of this program is prohibited from giving any competitor of
 Gaussian, Inc. access to this program.  By using this program,
 the user acknowledges that Gaussian, Inc. is engaged in the
 business of creating and licensing software in the field of
 computational chemistry and represents and warrants to the
 licensee that it is not a competitor of Gaussian, Inc. and that
 it will not use this program in any manner prohibited above.
 ---------------------------------------------------------------
  

 Cite this work as:
 Gaussian 09, Revision C.01,
 M. J. Frisch, G. W. Trucks, H. B. Schlegel, G. E. Scuseria, 
 M. A. Robb, J. R. Cheeseman, G. Scalmani, V. Barone, B. Mennucci, 
 G. A. Petersson, H. Nakatsuji, M. Caricato, X. Li, H. P. Hratchian, 
 A. F. Izmaylov, J. Bloino, G. Zheng, J. L. Sonnenberg, M. Hada, 
 M. Ehara, K. Toyota, R. Fukuda, J. Hasegawa, M. Ishida, T. Nakajima, 
 Y. Honda, O. Kitao, H. Nakai, T. Vreven, J. A. Montgomery, Jr., 
 J. E. Peralta, F. Ogliaro, M. Bearpark, J. J. Heyd, E. Brothers, 
 K. N. Kudin, V. N. Staroverov, T. Keith, R. Kobayashi, J. Normand, 
 K. Raghavachari, A. Rendell, J. C. Burant, S. S. Iyengar, J. Tomasi, 
 M. Cossi, N. Rega, J. M. Millam, M. Klene, J. E. Knox, J. B. Cross, 
 V. Bakken, C. Adamo, J. Jaramillo, R. Gomperts, R. E. Stratmann, 
 O. Yazyev, A. J. Austin, R. Cammi, C. Pomelli, J. W. Ochterski, 
 R. L. Martin, K. Morokuma, V. G. Zakrzewski, G. A. Voth, 
 P. Salvador, J. J. Dannenberg, S. Dapprich, A. D. Daniels, 
 O. Farkas, J. B. Foresman, J. V. Ortiz, J. Cioslowski, 
 and D. J. Fox, Gaussian, Inc., Wallingford CT, 2010.
 
 ******************************************
 Gaussian 09:  EM64L-G09RevC.01 23-Sep-2011
                10-Jul-2019 
 ******************************************
 %nprocs=8
 Will use up to    8 processors via shared memory.
 %mem=16GB
 -------------------------
 #opt freq blyp/6-31g(d,p)
 -------------------------
 1/14=-1,18=20,19=15,26=3,38=1/1,3;
 2/9=110,12=2,17=6,18=5,40=1/2;
 3/5=1,6=6,7=101,11=2,16=1,25=1,30=1,71=1,74=402/1,2,3;
 4//1;
 5/5=2,38=5/2;
 6/7=2,8=2,9=2,10=2,28=1/1;
 7//1,2,3,16;
 1/14=-1,18=20,19=15/3(2);
 2/9=110/2;
 99//99;
 2/9=110/2;
 3/5=1,6=6,7=101,11=2,16=1,25=1,30=1,71=1,74=402/1,2,3;
 4/5=5,16=3/1;
 5/5=2,38=5/2;
 7//1,2,3,16;
 1/14=-1,18=20,19=15/3(-5);
 2/9=110/2;
 6/7=2,8=2,9=2,10=2,19=2,28=1/1;
 99/9=1/99;
 -----------------------------------------------
 molecule_/home/mateus/github/db_singletoxygen 1
 -----------------------------------------------
 Charge =  0 Multiplicity = 1
 Symbolic Z-Matrix:
 C                     1.05765  -0.07073  -0.01194 
 C                     2.57681  -0.0718   -0.03706 
 C                     3.10689  -0.13279  -1.45965 
 H                     0.69381  -0.02652   1.01942 
 H                     0.65818  -0.97844  -0.47523 
 H                     0.65818   0.79401  -0.55121 
 H                     2.95164  -0.93075   0.53033 
 H                     2.95164   0.83254   0.45475 
 H                     2.767    -1.0423   -1.96503 
 H                     4.20144  -0.13274  -1.45859 
 H                     2.767     0.73015  -2.04101 
 

 GradGradGradGradGradGradGradGradGradGradGradGradGradGradGradGradGradGrad
 Berny optimization.
 Initialization pass.
                           ----------------------------
                           !    Initial Parameters    !
                           ! (Angstroms and Degrees)  !
 --------------------------                            --------------------------
 ! Name  Definition              Value          Derivative Info.                !
 --------------------------------------------------------------------------------
 ! R1    R(1,2)                  1.5194         estimate D2E/DX2                !
 ! R2    R(1,4)                  1.0945         estimate D2E/DX2                !
 ! R3    R(1,5)                  1.0946         estimate D2E/DX2                !
 ! R4    R(1,6)                  1.0946         estimate D2E/DX2                !
 ! R5    R(2,3)                  1.5194         estimate D2E/DX2                !
 ! R6    R(2,7)                  1.0955         estimate D2E/DX2                !
 ! R7    R(2,8)                  1.0955         estimate D2E/DX2                !
 ! R8    R(3,9)                  1.0946         estimate D2E/DX2                !
 ! R9    R(3,10)                 1.0946         estimate D2E/DX2                !
 ! R10   R(3,11)                 1.0946         estimate D2E/DX2                !
 ! A1    A(2,1,4)              110.3634         estimate D2E/DX2                !
 ! A2    A(2,1,5)              110.9353         estimate D2E/DX2                !
 ! A3    A(2,1,6)              110.9348         estimate D2E/DX2                !
 ! A4    A(4,1,5)              108.1194         estimate D2E/DX2                !
 ! A5    A(4,1,6)              108.1195         estimate D2E/DX2                !
 ! A6    A(5,1,6)              108.2651         estimate D2E/DX2                !
 ! A7    A(1,2,3)              111.3672         estimate D2E/DX2                !
 ! A8    A(1,2,7)              109.5167         estimate D2E/DX2                !
 ! A9    A(1,2,8)              109.5173         estimate D2E/DX2                !
 ! A10   A(3,2,7)              109.5165         estimate D2E/DX2                !
 ! A11   A(3,2,8)              109.5176         estimate D2E/DX2                !
 ! A12   A(7,2,8)              107.3162         estimate D2E/DX2                !
 ! A13   A(2,3,9)              110.9355         estimate D2E/DX2                !
 ! A14   A(2,3,10)             110.3635         estimate D2E/DX2                !
 ! A15   A(2,3,11)             110.9348         estimate D2E/DX2                !
 ! A16   A(9,3,10)             108.1196         estimate D2E/DX2                !
 ! A17   A(9,3,11)             108.2651         estimate D2E/DX2                !
 ! A18   A(10,3,11)            108.1189         estimate D2E/DX2                !
 ! D1    D(4,1,2,3)            179.9996         estimate D2E/DX2                !
 ! D2    D(4,1,2,7)             58.7158         estimate D2E/DX2                !
 ! D3    D(4,1,2,8)            -58.7149         estimate D2E/DX2                !
 ! D4    D(5,1,2,3)             60.1863         estimate D2E/DX2                !
 ! D5    D(5,1,2,7)            -61.0975         estimate D2E/DX2                !
 ! D6    D(5,1,2,8)           -178.5282         estimate D2E/DX2                !
 ! D7    D(6,1,2,3)            -60.1874         estimate D2E/DX2                !
 ! D8    D(6,1,2,7)            178.5288         estimate D2E/DX2                !
 ! D9    D(6,1,2,8)             61.098          estimate D2E/DX2                !
 ! D10   D(1,2,3,9)            -60.1863         estimate D2E/DX2                !
 ! D11   D(1,2,3,10)          -180.0            estimate D2E/DX2                !
 ! D12   D(1,2,3,11)            60.1876         estimate D2E/DX2                !
 ! D13   D(7,2,3,9)             61.0976         estimate D2E/DX2                !
 ! D14   D(7,2,3,10)           -58.7161         estimate D2E/DX2                !
 ! D15   D(7,2,3,11)          -178.5285         estimate D2E/DX2                !
 ! D16   D(8,2,3,9)            178.5284         estimate D2E/DX2                !
 ! D17   D(8,2,3,10)            58.7147         estimate D2E/DX2                !
 ! D18   D(8,2,3,11)           -61.0977         estimate D2E/DX2                !
 --------------------------------------------------------------------------------
 Trust Radius=3.00D-01 FncErr=1.00D-07 GrdErr=1.00D-06
 Number of steps in this run=     56 maximum allowed number of steps=    100.
 GradGradGradGradGradGradGradGradGradGradGradGradGradGradGradGradGradGrad

                          Input orientation:                          
 ---------------------------------------------------------------------
 Center     Atomic      Atomic             Coordinates (Angstroms)
 Number     Number       Type             X           Y           Z
 ---------------------------------------------------------------------
      1          6           0        1.057650   -0.070730   -0.011940
      2          6           0        2.576810   -0.071800   -0.037060
      3          6           0        3.106890   -0.132790   -1.459650
      4          1           0        0.693810   -0.026520    1.019420
      5          1           0        0.658180   -0.978440   -0.475230
      6          1           0        0.658180    0.794010   -0.551210
      7          1           0        2.951640   -0.930750    0.530330
      8          1           0        2.951640    0.832540    0.454750
      9          1           0        2.767000   -1.042300   -1.965030
     10          1           0        4.201440   -0.132740   -1.458590
     11          1           0        2.767000    0.730150   -2.041010
 ---------------------------------------------------------------------
                    Distance matrix (angstroms):
                    1          2          3          4          5
     1  C    0.000000
     2  C    1.519368   0.000000
     3  C    2.509801   1.519364   0.000000
     4  H    1.094549   2.159604   3.461219   0.000000
     5  H    1.094601   2.166825   2.771351   1.772399   0.000000
     6  H    1.094607   2.166822   2.771354   1.772404   1.774078
     7  H    2.149625   1.095547   2.149619   2.480854   2.504672
     8  H    2.149627   1.095539   2.149626   2.480853   3.066671
     9  H    2.771351   2.166820   1.094597   3.773177   2.582771
    10  H    3.461222   2.159603   1.094551   4.295961   3.773181
    11  H    2.771355   2.166821   1.094610   3.773181   3.133380
                    6          7          8          9         10
     6  H    0.000000
     7  H    3.066673   0.000000
     8  H    2.504675   1.764909   0.000000
     9  H    3.133376   2.504667   3.066668   0.000000
    10  H    3.773181   2.480851   2.480854   1.772399   0.000000
    11  H    2.582771   3.066671   2.504674   1.774078   1.772402
                   11
    11  H    0.000000
 Stoichiometry    C3H8
 Framework group  C1[X(C3H8)]
 Deg. of freedom    27
 Full point group                 C1      NOp   1
 Largest Abelian subgroup         C1      NOp   1
 Largest concise Abelian subgroup C1      NOp   1
                         Standard orientation:                         
 ---------------------------------------------------------------------
 Center     Atomic      Atomic             Coordinates (Angstroms)
 Number     Number       Type             X           Y           Z
 ---------------------------------------------------------------------
      1          6           0        1.254902   -0.263666   -0.000001
      2          6           0       -0.000002    0.592895    0.000003
      3          6           0       -1.254899   -0.263668   -0.000003
      4          1           0        2.147980    0.369144   -0.000004
      5          1           0        1.291387   -0.903972   -0.887035
      6          1           0        1.291386   -0.903968    0.887043
      7          1           0       -0.000004    1.242111   -0.882460
      8          1           0       -0.000001    1.242121    0.882449
      9          1           0       -1.291384   -0.903972   -0.887033
     10          1           0       -2.147982    0.369139    0.000000
     11          1           0       -1.291385   -0.903968    0.887045
 ---------------------------------------------------------------------
 Rotational constants (GHZ):     29.2064492      8.6302574      7.6134902
 Standard basis: 6-31G(d,p) (6D, 7F)
 There are    85 symmetry adapted basis functions of A   symmetry.
 Integral buffers will be    131072 words long.
 Raffenetti 2 integral format.
 Two-electron integral symmetry is turned on.
    85 basis functions,   140 primitive gaussians,    85 cartesian basis functions
    13 alpha electrons       13 beta electrons
       nuclear repulsion energy        82.9057012458 Hartrees.
 NAtoms=   11 NActive=   11 NUniq=   11 SFac= 1.00D+00 NAtFMM=   60 NAOKFM=F Big=F
 One-electron integrals computed using PRISM.
 NBasis=    85 RedAO= T  NBF=    85
 NBsUse=    85 1.00D-06 NBFU=    85
 Harris functional with IExCor=  402 diagonalized for initial guess.
 ExpMin= 1.61D-01 ExpMax= 3.05D+03 ExpMxC= 4.57D+02 IAcc=1 IRadAn=         1 AccDes= 0.00D+00
 HarFok:  IExCor=  402 AccDes= 0.00D+00 IRadAn=         1 IDoV= 1
 ScaDFX=  1.000000  1.000000  1.000000  1.000000
 FoFCou: FMM=F IPFlag=           0 FMFlag=      100000 FMFlg1=           0
         NFxFlg=           0 DoJE=T BraDBF=F KetDBF=T FulRan=T
         Omega=  0.000000  0.000000  1.000000  0.000000  0.000000 ICntrl=     500 IOpCl=  0
         NMat0=    1 NMatS0=    1 NMatT0=    0 NMatD0=    1 NMtDS0=    0 NMtDT0=    0
         I1Cent=           4 NGrid=           0.
 Petite list used in FoFCou.
 Initial guess orbital symmetries:
       Occupied  (A) (A) (A) (A) (A) (A) (A) (A) (A) (A) (A) (A)
                 (A)
       Virtual   (A) (A) (A) (A) (A) (A) (A) (A) (A) (A) (A) (A)
                 (A) (A) (A) (A) (A) (A) (A) (A) (A) (A) (A) (A)
                 (A) (A) (A) (A) (A) (A) (A) (A) (A) (A) (A) (A)
                 (A) (A) (A) (A) (A) (A) (A) (A) (A) (A) (A) (A)
                 (A) (A) (A) (A) (A) (A) (A) (A) (A) (A) (A) (A)
                 (A) (A) (A) (A) (A) (A) (A) (A) (A) (A) (A) (A)
 The electronic state of the initial guess is 1-A.
 Requested convergence on RMS density matrix=1.00D-08 within 128 cycles.
 Requested convergence on MAX density matrix=1.00D-06.
 Requested convergence on             energy=1.00D-06.
 No special actions if energy rises.
 Keep J ints in memory in canonical form, NReq=7718748.
 Integral accuracy reduced to 1.0D-05 until final iterations.
 Initial convergence to 1.0D-05 achieved.  Increase integral accuracy.
 SCF Done:  E(RB-LYP) =  -119.058797315     A.U. after   12 cycles
             Convg  =    0.4838D-08             -V/T =  2.0094

 **********************************************************************

            Population analysis using the SCF density.

 **********************************************************************

 Orbital symmetries:
       Occupied  (A) (A) (A) (A) (A) (A) (A) (A) (A) (A) (A) (A)
                 (A)
       Virtual   (A) (A) (A) (A) (A) (A) (A) (A) (A) (A) (A) (A)
                 (A) (A) (A) (A) (A) (A) (A) (A) (A) (A) (A) (A)
                 (A) (A) (A) (A) (A) (A) (A) (A) (A) (A) (A) (A)
                 (A) (A) (A) (A) (A) (A) (A) (A) (A) (A) (A) (A)
                 (A) (A) (A) (A) (A) (A) (A) (A) (A) (A) (A) (A)
                 (A) (A) (A) (A) (A) (A) (A) (A) (A) (A) (A) (A)
 The electronic state is 1-A.
 Alpha  occ. eigenvalues --   -9.91172  -9.90461  -9.90460  -0.69464  -0.59866
 Alpha  occ. eigenvalues --   -0.50944  -0.39760  -0.37599  -0.34046  -0.32376
 Alpha  occ. eigenvalues --   -0.28367  -0.27926  -0.27552
 Alpha virt. eigenvalues --    0.07352   0.12212   0.12490   0.12730   0.14794
 Alpha virt. eigenvalues --    0.16970   0.17052   0.17160   0.20299   0.23724
 Alpha virt. eigenvalues --    0.47583   0.48043   0.50649   0.51239   0.53555
 Alpha virt. eigenvalues --    0.62009   0.65130   0.66698   0.71929   0.80387
 Alpha virt. eigenvalues --    0.80864   0.81698   0.84646   0.84839   0.88743
 Alpha virt. eigenvalues --    0.89393   0.90835   0.99890   1.25627   1.25818
 Alpha virt. eigenvalues --    1.34389   1.49470   1.50923   1.61832   1.64097
 Alpha virt. eigenvalues --    1.78505   1.80828   1.87134   1.98726   1.99000
 Alpha virt. eigenvalues --    2.00591   2.01645   2.04080   2.04475   2.04734
 Alpha virt. eigenvalues --    2.18566   2.19408   2.24231   2.26659   2.37875
 Alpha virt. eigenvalues --    2.38371   2.44810   2.60167   2.62092   2.64633
 Alpha virt. eigenvalues --    2.67050   2.74724   2.80879   2.84182   2.84546
 Alpha virt. eigenvalues --    2.85776   3.08832   3.15638   3.23746   3.26433
 Alpha virt. eigenvalues --    3.34806   3.41161   3.43269   3.49230   4.21888
 Alpha virt. eigenvalues --    4.40598   4.55970
          Condensed to atoms (all electrons):
              1          2          3          4          5          6
     1  C    4.873105   0.398858  -0.052777   0.371397   0.382802   0.382801
     2  C    0.398858   4.775016   0.398858  -0.028068  -0.036161  -0.036161
     3  C   -0.052777   0.398858   4.873104   0.005371  -0.005387  -0.005387
     4  H    0.371397  -0.028068   0.005371   0.640129  -0.032932  -0.032932
     5  H    0.382802  -0.036161  -0.005387  -0.032932   0.631856  -0.034938
     6  H    0.382801  -0.036161  -0.005387  -0.032932  -0.034938   0.631858
     7  H   -0.038998   0.382596  -0.038999  -0.003418  -0.005937   0.006251
     8  H   -0.038998   0.382598  -0.038998  -0.003418   0.006251  -0.005937
     9  H   -0.005387  -0.036161   0.382803   0.000017   0.006292  -0.000651
    10  H    0.005371  -0.028068   0.371397  -0.000283   0.000017   0.000017
    11  H   -0.005387  -0.036162   0.382800   0.000017  -0.000651   0.006292
              7          8          9         10         11
     1  C   -0.038998  -0.038998  -0.005387   0.005371  -0.005387
     2  C    0.382596   0.382598  -0.036161  -0.028068  -0.036162
     3  C   -0.038999  -0.038998   0.382803   0.371397   0.382800
     4  H   -0.003418  -0.003418   0.000017  -0.000283   0.000017
     5  H   -0.005937   0.006251   0.006292   0.000017  -0.000651
     6  H    0.006251  -0.005937  -0.000651   0.000017   0.006292
     7  H    0.663365  -0.041424  -0.005937  -0.003418   0.006251
     8  H   -0.041424   0.663360   0.006251  -0.003418  -0.005937
     9  H   -0.005937   0.006251   0.631854  -0.032932  -0.034938
    10  H   -0.003418  -0.003418  -0.032932   0.640130  -0.032932
    11  H    0.006251  -0.005937  -0.034938  -0.032932   0.631860
 Mulliken atomic charges:
              1
     1  C   -0.272787
     2  C   -0.137147
     3  C   -0.272786
     4  H    0.084119
     5  H    0.088787
     6  H    0.088786
     7  H    0.079667
     8  H    0.079669
     9  H    0.088788
    10  H    0.084118
    11  H    0.088785
 Sum of Mulliken atomic charges =   0.00000
 Mulliken charges with hydrogens summed into heavy atoms:
              1
     1  C   -0.011094
     2  C    0.022188
     3  C   -0.011094
 Sum of Mulliken charges with hydrogens summed into heavy atoms =   0.00000
 Electronic spatial extent (au):  <R**2>=            223.4902
 Charge=              0.0000 electrons
 Dipole moment (field-independent basis, Debye):
    X=              0.0000    Y=              0.0573    Z=              0.0000  Tot=              0.0573
 Quadrupole moment (field-independent basis, Debye-Ang):
   XX=            -22.0681   YY=            -21.6257   ZZ=            -21.2115
   XY=              0.0000   XZ=              0.0000   YZ=              0.0000
 Traceless Quadrupole moment (field-independent basis, Debye-Ang):
   XX=             -0.4330   YY=              0.0094   ZZ=              0.4236
   XY=              0.0000   XZ=              0.0000   YZ=              0.0000
 Octapole moment (field-independent basis, Debye-Ang**2):
  XXX=              0.0000  YYY=              0.1687  ZZZ=              0.0000  XYY=              0.0000
  XXY=              1.1576  XXZ=             -0.0001  XZZ=              0.0000  YZZ=             -0.3944
  YYZ=              0.0000  XYZ=              0.0000
 Hexadecapole moment (field-independent basis, Debye-Ang**3):
 XXXX=           -196.9829 YYYY=            -69.8465 ZZZZ=            -43.0650 XXXY=              0.0000
 XXXZ=              0.0000 YYYX=              0.0000 YYYZ=              0.0002 ZZZX=              0.0000
 ZZZY=              0.0001 XXYY=            -43.9308 XXZZ=            -40.4472 YYZZ=            -17.1996
 XXYZ=              0.0001 YYXZ=              0.0000 ZZXY=              0.0000
 N-N= 8.290570124581D+01 E-N=-4.404789424218D+02  KE= 1.179522440475D+02
 Calling FoFJK, ICntrl=      2527 FMM=F ISym2X=0 I1Cent= 0 IOpClX= 0 NMat=1 NMatS=1 NMatT=0.
 ***** Axes restored to original set *****
 -------------------------------------------------------------------
 Center     Atomic                   Forces (Hartrees/Bohr)
 Number     Number              X              Y              Z
 -------------------------------------------------------------------
      1        6          -0.004226957    0.000265918    0.006116309
      2        6          -0.000481136   -0.000035896   -0.000677018
      3        6           0.007182928   -0.000075057   -0.001944774
      4        1          -0.004714050    0.000169114    0.003942283
      5        1          -0.003168799   -0.003765093   -0.002296743
      6        1          -0.003168343    0.003551963   -0.002608639
      7        1           0.002900775   -0.003399464    0.004252361
      8        1           0.002902277    0.003755280    0.003946933
      9        1          -0.001259881   -0.003824951   -0.003646919
     10        1           0.005290742   -0.000134391   -0.003126105
     11        1          -0.001257555    0.003492578   -0.003957686
 -------------------------------------------------------------------
 Cartesian Forces:  Max     0.007182928 RMS     0.003398150

 GradGradGradGradGradGradGradGradGradGradGradGradGradGradGradGradGradGrad
 Berny optimization.
 Internal  Forces:  Max     0.015363444 RMS     0.004258329
 Search for a local minimum.
 Step number   1 out of a maximum of   56
 All quantities printed in internal units (Hartrees-Bohrs-Radians)
 Mixed Optimization -- RFO/linear search
 Second derivative matrix not updated -- first step.
 ITU=  0
     Eigenvalues ---    0.00510   0.00510   0.03789   0.04986   0.05630
     Eigenvalues ---    0.05630   0.05702   0.05702   0.08175   0.12067
     Eigenvalues ---    0.16000   0.16000   0.16000   0.16000   0.16000
     Eigenvalues ---    0.16000   0.21907   0.30428   0.30428   0.34179
     Eigenvalues ---    0.34180   0.34285   0.34286   0.34286   0.34287
     Eigenvalues ---    0.34292   0.34292
 RFO step:  Lambda=-3.08771010D-03 EMin= 5.09745295D-03
 Linear search not attempted -- first point.
 Iteration  1 RMS(Cart)=  0.03718299 RMS(Int)=  0.00019628
 Iteration  2 RMS(Cart)=  0.00017908 RMS(Int)=  0.00007894
 Iteration  3 RMS(Cart)=  0.00000008 RMS(Int)=  0.00007894
 Variable       Old X    -DE/DX   Delta X   Delta X   Delta X     New X
                                 (Linear)    (Quad)   (Total)
    R1        2.87119   0.01536   0.00000   0.04998   0.04998   2.92117
    R2        2.06840   0.00529   0.00000   0.01528   0.01528   2.08368
    R3        2.06850   0.00525   0.00000   0.01518   0.01518   2.08367
    R4        2.06851   0.00525   0.00000   0.01517   0.01517   2.08368
    R5        2.87118   0.01536   0.00000   0.04998   0.04998   2.92117
    R6        2.07028   0.00586   0.00000   0.01699   0.01699   2.08728
    R7        2.07027   0.00586   0.00000   0.01700   0.01700   2.08727
    R8        2.06849   0.00525   0.00000   0.01518   0.01518   2.08367
    R9        2.06840   0.00529   0.00000   0.01528   0.01528   2.08368
   R10        2.06851   0.00525   0.00000   0.01516   0.01516   2.08368
    A1        1.92620   0.00414   0.00000   0.02836   0.02821   1.95442
    A2        1.93619   0.00081   0.00000   0.00345   0.00338   1.93957
    A3        1.93618   0.00081   0.00000   0.00346   0.00339   1.93957
    A4        1.88704  -0.00224   0.00000  -0.01090  -0.01104   1.87600
    A5        1.88704  -0.00224   0.00000  -0.01091  -0.01104   1.87600
    A6        1.88958  -0.00152   0.00000  -0.01495  -0.01493   1.87465
    A7        1.94372   0.00639   0.00000   0.03573   0.03554   1.97927
    A8        1.91143  -0.00165   0.00000  -0.00364  -0.00379   1.90764
    A9        1.91144  -0.00165   0.00000  -0.00364  -0.00380   1.90764
   A10        1.91142  -0.00165   0.00000  -0.00363  -0.00379   1.90764
   A11        1.91144  -0.00165   0.00000  -0.00365  -0.00380   1.90764
   A12        1.87302  -0.00005   0.00000  -0.02340  -0.02349   1.84953
   A13        1.93619   0.00081   0.00000   0.00345   0.00338   1.93957
   A14        1.92621   0.00414   0.00000   0.02836   0.02821   1.95442
   A15        1.93618   0.00081   0.00000   0.00346   0.00339   1.93957
   A16        1.88704  -0.00224   0.00000  -0.01091  -0.01104   1.87600
   A17        1.88958  -0.00152   0.00000  -0.01495  -0.01494   1.87465
   A18        1.88703  -0.00224   0.00000  -0.01090  -0.01103   1.87600
    D1        3.14159   0.00000   0.00000   0.00001   0.00001  -3.14159
    D2        1.02478  -0.00099   0.00000  -0.01629  -0.01630   1.00848
    D3       -1.02477   0.00099   0.00000   0.01628   0.01629  -1.00848
    D4        1.05045  -0.00042   0.00000  -0.00712  -0.00715   1.04330
    D5       -1.06635  -0.00141   0.00000  -0.02342  -0.02346  -1.08982
    D6       -3.11591   0.00057   0.00000   0.00916   0.00913  -3.10677
    D7       -1.05047   0.00042   0.00000   0.00714   0.00717  -1.04329
    D8        3.11592  -0.00057   0.00000  -0.00917  -0.00914   3.10678
    D9        1.06636   0.00141   0.00000   0.02341   0.02346   1.08982
   D10       -1.05045   0.00042   0.00000   0.00712   0.00715  -1.04330
   D11       -3.14159   0.00000   0.00000   0.00000   0.00000   3.14159
   D12        1.05047  -0.00042   0.00000  -0.00714  -0.00718   1.04330
   D13        1.06635   0.00141   0.00000   0.02341   0.02346   1.08982
   D14       -1.02479   0.00099   0.00000   0.01629   0.01630  -1.00849
   D15       -3.11591   0.00057   0.00000   0.00916   0.00913  -3.10678
   D16        3.11591  -0.00057   0.00000  -0.00916  -0.00913   3.10678
   D17        1.02477  -0.00099   0.00000  -0.01628  -0.01629   1.00848
   D18       -1.06636  -0.00141   0.00000  -0.02341  -0.02346  -1.08982
         Item               Value     Threshold  Converged?
 Maximum Force            0.015363     0.000450     NO 
 RMS     Force            0.004258     0.000300     NO 
 Maximum Displacement     0.082238     0.001800     NO 
 RMS     Displacement     0.037173     0.001200     NO 
 Predicted change in Energy=-1.568702D-03
 GradGradGradGradGradGradGradGradGradGradGradGradGradGradGradGradGradGrad

                          Input orientation:                          
 ---------------------------------------------------------------------
 Center     Atomic      Atomic             Coordinates (Angstroms)
 Number     Number       Type             X           Y           Z
 ---------------------------------------------------------------------
      1          6           0        1.029660   -0.069670    0.012763
      2          6           0        2.574565   -0.071941   -0.040231
      3          6           0        3.139533   -0.133563   -1.477783
      4          1           0        0.652292   -0.025298    1.047864
      5          1           0        0.614661   -0.979126   -0.452494
      6          1           0        0.614662    0.796637   -0.528615
      7          1           0        2.958478   -0.929832    0.539976
      8          1           0        2.958479    0.832450    0.464436
      9          1           0        2.802894   -1.045392   -1.998400
     10          1           0        4.242121   -0.134007   -1.488216
     11          1           0        2.802895    0.730371   -2.074519
 ---------------------------------------------------------------------
                    Distance matrix (angstroms):
                    1          2          3          4          5
     1  C    0.000000
     2  C    1.545815   0.000000
     3  C    2.584062   1.545814   0.000000
     4  H    1.102637   2.209357   3.546404   0.000000
     5  H    1.102633   2.198674   2.853274   1.778280   0.000000
     6  H    1.102634   2.198674   2.853273   1.778280   1.777393
     7  H    2.176735   1.104539   2.176735   2.528760   2.545762
     8  H    2.176735   1.104537   2.176735   2.528758   3.100976
     9  H    2.853274   2.198673   1.102632   3.865929   2.680033
    10  H    3.546405   2.209357   1.102637   4.396634   3.865929
    11  H    2.853275   2.198674   1.102634   3.865929   3.215853
                    6          7          8          9         10
     6  H    0.000000
     7  H    3.100977   0.000000
     8  H    2.545764   1.763900   0.000000
     9  H    3.215851   2.545763   3.100976   0.000000
    10  H    3.865927   2.528762   2.528760   1.778280   0.000000
    11  H    2.680033   3.100978   2.545765   1.777393   1.778278
                   11
    11  H    0.000000
 Stoichiometry    C3H8
 Framework group  C1[X(C3H8)]
 Deg. of freedom    27
 Full point group                 C1      NOp   1
 Largest Abelian subgroup         C1      NOp   1
 Largest concise Abelian subgroup C1      NOp   1
                         Standard orientation:                         
 ---------------------------------------------------------------------
 Center     Atomic      Atomic             Coordinates (Angstroms)
 Number     Number       Type             X           Y           Z
 ---------------------------------------------------------------------
      1          6           0        1.292031   -0.260441    0.000000
      2          6           0        0.000000    0.588205    0.000000
      3          6           0       -1.292031   -0.260440   -0.000001
      4          1           0        2.198317    0.367616    0.000002
      5          1           0        1.340017   -0.911374   -0.888697
      6          1           0        1.340015   -0.911376    0.888696
      7          1           0        0.000001    1.253162   -0.881951
      8          1           0        0.000001    1.253163    0.881949
      9          1           0       -1.340017   -0.911374   -0.888697
     10          1           0       -2.198317    0.367615    0.000003
     11          1           0       -1.340017   -0.911375    0.888697
 ---------------------------------------------------------------------
 Rotational constants (GHZ):     29.1890472      8.1782411      7.2605489
 Standard basis: 6-31G(d,p) (6D, 7F)
 There are    85 symmetry adapted basis functions of A   symmetry.
 Integral buffers will be    131072 words long.
 Raffenetti 2 integral format.
 Two-electron integral symmetry is turned on.
    85 basis functions,   140 primitive gaussians,    85 cartesian basis functions
    13 alpha electrons       13 beta electrons
       nuclear repulsion energy        81.6017588772 Hartrees.
 NAtoms=   11 NActive=   11 NUniq=   11 SFac= 1.00D+00 NAtFMM=   60 NAOKFM=F Big=F
 One-electron integrals computed using PRISM.
 NBasis=    85 RedAO= T  NBF=    85
 NBsUse=    85 1.00D-06 NBFU=    85
 Initial guess read from the read-write file.
 B after Tr=     0.000000    0.000000    0.000000
         Rot=    1.000000    0.000000    0.000000    0.000000 Ang=   0.00 deg.
 Initial guess orbital symmetries:
       Occupied  (A) (A) (A) (A) (A) (A) (A) (A) (A) (A) (A) (A)
                 (A)
       Virtual   (A) (A) (A) (A) (A) (A) (A) (A) (A) (A) (A) (A)
                 (A) (A) (A) (A) (A) (A) (A) (A) (A) (A) (A) (A)
                 (A) (A) (A) (A) (A) (A) (A) (A) (A) (A) (A) (A)
                 (A) (A) (A) (A) (A) (A) (A) (A) (A) (A) (A) (A)
                 (A) (A) (A) (A) (A) (A) (A) (A) (A) (A) (A) (A)
                 (A) (A) (A) (A) (A) (A) (A) (A) (A) (A) (A) (A)
 Harris functional with IExCor=  402 diagonalized for initial guess.
 ExpMin= 1.61D-01 ExpMax= 3.05D+03 ExpMxC= 4.57D+02 IAcc=1 IRadAn=         1 AccDes= 0.00D+00
 HarFok:  IExCor=  402 AccDes= 0.00D+00 IRadAn=         1 IDoV= 1
 ScaDFX=  1.000000  1.000000  1.000000  1.000000
 FoFCou: FMM=F IPFlag=           0 FMFlag=      100000 FMFlg1=           0
         NFxFlg=           0 DoJE=T BraDBF=F KetDBF=T FulRan=T
         Omega=  0.000000  0.000000  1.000000  0.000000  0.000000 ICntrl=     500 IOpCl=  0
         NMat0=    1 NMatS0=    1 NMatT0=    0 NMatD0=    1 NMtDS0=    0 NMtDT0=    0
         I1Cent=           4 NGrid=           0.
 Petite list used in FoFCou.
 Requested convergence on RMS density matrix=1.00D-08 within 128 cycles.
 Requested convergence on MAX density matrix=1.00D-06.
 Requested convergence on             energy=1.00D-06.
 No special actions if energy rises.
 Keep J ints in memory in canonical form, NReq=7718748.
 Integral accuracy reduced to 1.0D-05 until final iterations.
 Initial convergence to 1.0D-05 achieved.  Increase integral accuracy.
 SCF Done:  E(RB-LYP) =  -119.060141884     A.U. after   10 cycles
             Convg  =    0.5969D-08             -V/T =  2.0109
 Calling FoFJK, ICntrl=      2527 FMM=F ISym2X=0 I1Cent= 0 IOpClX= 0 NMat=1 NMatS=1 NMatT=0.
 ***** Axes restored to original set *****
 -------------------------------------------------------------------
 Center     Atomic                   Forces (Hartrees/Bohr)
 Number     Number              X              Y              Z
 -------------------------------------------------------------------
      1        6           0.000989362   -0.000025492   -0.000606353
      2        6          -0.000186089   -0.000012144   -0.000262154
      3        6          -0.000901415    0.000032425    0.000729360
      4        1           0.000948539   -0.000002732   -0.000061888
      5        1          -0.000082824   -0.000246728   -0.000283336
      6        1          -0.000082662    0.000221230   -0.000303262
      7        1           0.000094083   -0.000168158    0.000140240
      8        1           0.000094355    0.000180329    0.000125662
      9        1          -0.000249297   -0.000241896   -0.000165827
     10        1          -0.000374702    0.000037114    0.000872962
     11        1          -0.000249350    0.000226052   -0.000185403
 -------------------------------------------------------------------
 Cartesian Forces:  Max     0.000989362 RMS     0.000401105

 GradGradGradGradGradGradGradGradGradGradGradGradGradGradGradGradGradGrad
 Berny optimization.
 Using GEDIIS/GDIIS optimizer.
 Internal  Forces:  Max     0.001814470 RMS     0.000562530
 Search for a local minimum.
 Step number   2 out of a maximum of   56
 All quantities printed in internal units (Hartrees-Bohrs-Radians)
 Mixed Optimization -- En-DIIS/RFO-DIIS
 Update second derivatives using D2CorX and points    1    2
 DE= -1.34D-03 DEPred=-1.57D-03 R= 8.57D-01
 SS=  1.41D+00  RLast= 1.23D-01 DXNew= 5.0454D-01 3.6998D-01
 Trust test= 8.57D-01 RLast= 1.23D-01 DXMaxT set to 3.70D-01
 ITU=  1  0
 Use linear search instead of GDIIS.
     Eigenvalues ---    0.00510   0.00510   0.03558   0.04957   0.05494
     Eigenvalues ---    0.05494   0.05595   0.05623   0.08551   0.12345
     Eigenvalues ---    0.15937   0.16000   0.16000   0.16000   0.16000
     Eigenvalues ---    0.16647   0.22408   0.30428   0.32515   0.33173
     Eigenvalues ---    0.34180   0.34215   0.34285   0.34286   0.34287
     Eigenvalues ---    0.34292   0.34652
 RFO step:  Lambda=-2.47438357D-05 EMin= 5.09745295D-03
 Quartic linear search produced a step of -0.10163.
 Iteration  1 RMS(Cart)=  0.00490980 RMS(Int)=  0.00000916
 Iteration  2 RMS(Cart)=  0.00000650 RMS(Int)=  0.00000709
 Iteration  3 RMS(Cart)=  0.00000000 RMS(Int)=  0.00000709
 Variable       Old X    -DE/DX   Delta X   Delta X   Delta X     New X
                                 (Linear)    (Quad)   (Total)
    R1        2.92117  -0.00181  -0.00508  -0.00002  -0.00510   2.91606
    R2        2.08368  -0.00038  -0.00155   0.00063  -0.00092   2.08276
    R3        2.08367   0.00035  -0.00154   0.00255   0.00101   2.08468
    R4        2.08368   0.00035  -0.00154   0.00255   0.00101   2.08468
    R5        2.92117  -0.00181  -0.00508  -0.00002  -0.00510   2.91606
    R6        2.08728   0.00024  -0.00173   0.00244   0.00071   2.08799
    R7        2.08727   0.00024  -0.00173   0.00245   0.00072   2.08799
    R8        2.08367   0.00035  -0.00154   0.00255   0.00101   2.08468
    R9        2.08368  -0.00038  -0.00155   0.00063  -0.00092   2.08276
   R10        2.08368   0.00035  -0.00154   0.00255   0.00101   2.08468
    A1        1.95442  -0.00124  -0.00287  -0.00451  -0.00737   1.94705
    A2        1.93957   0.00014  -0.00034   0.00138   0.00104   1.94061
    A3        1.93957   0.00014  -0.00034   0.00138   0.00104   1.94061
    A4        1.87600   0.00054   0.00112   0.00140   0.00254   1.87854
    A5        1.87600   0.00054   0.00112   0.00140   0.00254   1.87854
    A6        1.87465  -0.00005   0.00152  -0.00093   0.00059   1.87524
    A7        1.97927  -0.00136  -0.00361  -0.00247  -0.00606   1.97320
    A8        1.90764   0.00041   0.00039   0.00096   0.00136   1.90899
    A9        1.90764   0.00041   0.00039   0.00095   0.00135   1.90899
   A10        1.90764   0.00041   0.00038   0.00096   0.00135   1.90899
   A11        1.90764   0.00041   0.00039   0.00095   0.00135   1.90899
   A12        1.84953  -0.00022   0.00239  -0.00128   0.00112   1.85065
   A13        1.93957   0.00014  -0.00034   0.00138   0.00104   1.94061
   A14        1.95442  -0.00124  -0.00287  -0.00451  -0.00737   1.94705
   A15        1.93957   0.00014  -0.00034   0.00138   0.00104   1.94061
   A16        1.87600   0.00054   0.00112   0.00140   0.00254   1.87854
   A17        1.87465  -0.00005   0.00152  -0.00093   0.00059   1.87524
   A18        1.87600   0.00054   0.00112   0.00141   0.00254   1.87854
    D1       -3.14159   0.00000   0.00000   0.00000   0.00000  -3.14159
    D2        1.00848   0.00010   0.00166  -0.00023   0.00142   1.00991
    D3       -1.00848  -0.00010  -0.00166   0.00023  -0.00143  -1.00990
    D4        1.04330   0.00006   0.00073   0.00033   0.00106   1.04436
    D5       -1.08982   0.00016   0.00238   0.00010   0.00249  -1.08733
    D6       -3.10677  -0.00003  -0.00093   0.00056  -0.00036  -3.10714
    D7       -1.04329  -0.00006  -0.00073  -0.00033  -0.00106  -1.04436
    D8        3.10678   0.00003   0.00093  -0.00057   0.00036   3.10714
    D9        1.08982  -0.00016  -0.00238  -0.00010  -0.00249   1.08733
   D10       -1.04330  -0.00006  -0.00073  -0.00033  -0.00106  -1.04436
   D11        3.14159   0.00000   0.00000   0.00000   0.00000   3.14159
   D12        1.04330   0.00006   0.00073   0.00033   0.00106   1.04436
   D13        1.08982  -0.00016  -0.00238  -0.00010  -0.00249   1.08733
   D14       -1.00849  -0.00010  -0.00166   0.00024  -0.00142  -1.00991
   D15       -3.10678  -0.00003  -0.00093   0.00057  -0.00036  -3.10714
   D16        3.10678   0.00003   0.00093  -0.00056   0.00036   3.10714
   D17        1.00848   0.00010   0.00166  -0.00023   0.00143   1.00990
   D18       -1.08982   0.00016   0.00238   0.00010   0.00249  -1.08733
         Item               Value     Threshold  Converged?
 Maximum Force            0.001814     0.000450     NO 
 RMS     Force            0.000563     0.000300     NO 
 Maximum Displacement     0.014904     0.001800     NO 
 RMS     Displacement     0.004914     0.001200     NO 
 Predicted change in Energy=-2.798066D-05
 GradGradGradGradGradGradGradGradGradGradGradGradGradGradGradGradGradGrad

                          Input orientation:                          
 ---------------------------------------------------------------------
 Center     Atomic      Atomic             Coordinates (Angstroms)
 Number     Number       Type             X           Y           Z
 ---------------------------------------------------------------------
      1          6           0        1.032886   -0.069832    0.008961
      2          6           0        2.575246   -0.071900   -0.039269
      3          6           0        3.134869   -0.133487   -1.476011
      4          1           0        0.660179   -0.025412    1.045229
      5          1           0        0.618181   -0.979924   -0.456583
      6          1           0        0.618181    0.797083   -0.532755
      7          1           0        2.959007   -0.930473    0.540751
      8          1           0        2.959008    0.833156    0.465153
      9          1           0        2.797838   -1.045930   -1.996429
     10          1           0        4.237005   -0.133728   -1.481665
     11          1           0        2.797838    0.731076   -2.072601
 ---------------------------------------------------------------------
                    Distance matrix (angstroms):
                    1          2          3          4          5
     1  C    0.000000
     2  C    1.543115   0.000000
     3  C    2.574398   1.543114   0.000000
     4  H    1.102150   2.201312   3.534462   0.000000
     5  H    1.103167   2.197444   2.844189   1.779971   0.000000
     6  H    1.103168   2.197444   2.844189   1.779971   1.778638
     7  H    2.175648   1.104917   2.175648   2.521556   2.544914
     8  H    2.175648   1.104917   2.175648   2.521555   3.101020
     9  H    2.844189   2.197444   1.103167   3.855221   2.669530
    10  H    3.534462   2.201312   1.102150   4.380709   3.855221
    11  H    2.844189   2.197444   1.103168   3.855220   3.207794
                    6          7          8          9         10
     6  H    0.000000
     7  H    3.101020   0.000000
     8  H    2.544915   1.765248   0.000000
     9  H    3.207794   2.544914   3.101020   0.000000
    10  H    3.855220   2.521556   2.521555   1.779971   0.000000
    11  H    2.669529   3.101021   2.544915   1.778638   1.779970
                   11
    11  H    0.000000
 Stoichiometry    C3H8
 Framework group  C1[X(C3H8)]
 Deg. of freedom    27
 Full point group                 C1      NOp   1
 Largest Abelian subgroup         C1      NOp   1
 Largest concise Abelian subgroup C1      NOp   1
                         Standard orientation:                         
 ---------------------------------------------------------------------
 Center     Atomic      Atomic             Coordinates (Angstroms)
 Number     Number       Type             X           Y           Z
 ---------------------------------------------------------------------
      1          6           0        1.287199   -0.261433    0.000000
      2          6           0        0.000000    0.589637    0.000000
      3          6           0       -1.287199   -0.261433    0.000000
      4          1           0        2.190354    0.370268    0.000001
      5          1           0        1.334765   -0.912453   -0.889319
      6          1           0        1.334764   -0.912454    0.889319
      7          1           0        0.000000    1.254329   -0.882625
      8          1           0        0.000000    1.254330    0.882624
      9          1           0       -1.334765   -0.912453   -0.889319
     10          1           0       -2.190354    0.370267    0.000001
     11          1           0       -1.334765   -0.912454    0.889319
 ---------------------------------------------------------------------
 Rotational constants (GHZ):     29.0926668      8.2341138      7.2999477
 Standard basis: 6-31G(d,p) (6D, 7F)
 There are    85 symmetry adapted basis functions of A   symmetry.
 Integral buffers will be    131072 words long.
 Raffenetti 2 integral format.
 Two-electron integral symmetry is turned on.
    85 basis functions,   140 primitive gaussians,    85 cartesian basis functions
    13 alpha electrons       13 beta electrons
       nuclear repulsion energy        81.7097056414 Hartrees.
 NAtoms=   11 NActive=   11 NUniq=   11 SFac= 1.00D+00 NAtFMM=   60 NAOKFM=F Big=F
 One-electron integrals computed using PRISM.
 NBasis=    85 RedAO= T  NBF=    85
 NBsUse=    85 1.00D-06 NBFU=    85
 Initial guess read from the read-write file.
 B after Tr=     0.000000    0.000000    0.000000
         Rot=    1.000000    0.000000    0.000000    0.000000 Ang=   0.00 deg.
 Initial guess orbital symmetries:
       Occupied  (A) (A) (A) (A) (A) (A) (A) (A) (A) (A) (A) (A)
                 (A)
       Virtual   (A) (A) (A) (A) (A) (A) (A) (A) (A) (A) (A) (A)
                 (A) (A) (A) (A) (A) (A) (A) (A) (A) (A) (A) (A)
                 (A) (A) (A) (A) (A) (A) (A) (A) (A) (A) (A) (A)
                 (A) (A) (A) (A) (A) (A) (A) (A) (A) (A) (A) (A)
                 (A) (A) (A) (A) (A) (A) (A) (A) (A) (A) (A) (A)
                 (A) (A) (A) (A) (A) (A) (A) (A) (A) (A) (A) (A)
 Requested convergence on RMS density matrix=1.00D-08 within 128 cycles.
 Requested convergence on MAX density matrix=1.00D-06.
 Requested convergence on             energy=1.00D-06.
 No special actions if energy rises.
 Keep J ints in memory in canonical form, NReq=7718748.
 SCF Done:  E(RB-LYP) =  -119.060170539     A.U. after    7 cycles
             Convg  =    0.6300D-08             -V/T =  2.0109
 Calling FoFJK, ICntrl=      2527 FMM=F ISym2X=0 I1Cent= 0 IOpClX= 0 NMat=1 NMatS=1 NMatT=0.
 ***** Axes restored to original set *****
 -------------------------------------------------------------------
 Center     Atomic                   Forces (Hartrees/Bohr)
 Number     Number              X              Y              Z
 -------------------------------------------------------------------
      1        6           0.000105412    0.000008689    0.000199361
      2        6          -0.000267705   -0.000016432   -0.000377890
      3        6           0.000153204    0.000007430    0.000165481
      4        1          -0.000001989   -0.000000480   -0.000010464
      5        1           0.000021371    0.000035725   -0.000041366
      6        1           0.000021413   -0.000039218   -0.000038129
      7        1           0.000033432    0.000038438    0.000045648
      8        1           0.000033480   -0.000034212    0.000048815
      9        1          -0.000044656    0.000037675    0.000005261
     10        1          -0.000009263   -0.000000334   -0.000005308
     11        1          -0.000044698   -0.000037280    0.000008591
 -------------------------------------------------------------------
 Cartesian Forces:  Max     0.000377890 RMS     0.000101498

 GradGradGradGradGradGradGradGradGradGradGradGradGradGradGradGradGradGrad
 Berny optimization.
 Using GEDIIS/GDIIS optimizer.
 Internal  Forces:  Max     0.000142709 RMS     0.000044170
 Search for a local minimum.
 Step number   3 out of a maximum of   56
 All quantities printed in internal units (Hartrees-Bohrs-Radians)
 Mixed Optimization -- En-DIIS/RFO-DIIS
 Swaping is turned off.
 Update second derivatives using D2CorX and points    1    2    3
 DE= -2.87D-05 DEPred=-2.80D-05 R= 1.02D+00
 SS=  1.41D+00  RLast= 1.68D-02 DXNew= 6.2223D-01 5.0340D-02
 Trust test= 1.02D+00 RLast= 1.68D-02 DXMaxT set to 3.70D-01
 ITU=  1  1  0
     Eigenvalues ---    0.00510   0.00510   0.03590   0.04974   0.05537
     Eigenvalues ---    0.05537   0.05589   0.05682   0.08493   0.12303
     Eigenvalues ---    0.15969   0.16000   0.16000   0.16000   0.16000
     Eigenvalues ---    0.16585   0.23302   0.30428   0.30492   0.33311
     Eigenvalues ---    0.34180   0.34220   0.34285   0.34286   0.34287
     Eigenvalues ---    0.34292   0.34472
 En-DIIS/RFO-DIIS IScMMF=        0 using points:     3    2
 RFO step:  Lambda=-2.26658883D-07.
 DidBck=F Rises=F RFO-DIIS coefs:    0.98595    0.01405
 Iteration  1 RMS(Cart)=  0.00023956 RMS(Int)=  0.00000011
 Iteration  2 RMS(Cart)=  0.00000019 RMS(Int)=  0.00000006
 Variable       Old X    -DE/DX   Delta X   Delta X   Delta X     New X
                                  (DIIS)     (GDIIS)  (Total)
    R1        2.91606  -0.00014   0.00007  -0.00059  -0.00052   2.91554
    R2        2.08276  -0.00001   0.00001  -0.00005  -0.00004   2.08272
    R3        2.08468  -0.00002  -0.00001  -0.00004  -0.00005   2.08463
    R4        2.08468  -0.00002  -0.00001  -0.00004  -0.00005   2.08463
    R5        2.91606  -0.00014   0.00007  -0.00059  -0.00052   2.91554
    R6        2.08799   0.00001  -0.00001   0.00003   0.00002   2.08801
    R7        2.08799   0.00001  -0.00001   0.00003   0.00002   2.08801
    R8        2.08468  -0.00002  -0.00001  -0.00004  -0.00005   2.08463
    R9        2.08276  -0.00001   0.00001  -0.00005  -0.00004   2.08272
   R10        2.08468  -0.00002  -0.00001  -0.00004  -0.00005   2.08463
    A1        1.94705   0.00003   0.00010   0.00022   0.00032   1.94737
    A2        1.94061  -0.00003  -0.00001  -0.00026  -0.00027   1.94034
    A3        1.94061  -0.00003  -0.00001  -0.00026  -0.00027   1.94034
    A4        1.87854   0.00002  -0.00004   0.00037   0.00033   1.87887
    A5        1.87854   0.00002  -0.00004   0.00037   0.00033   1.87887
    A6        1.87524  -0.00001  -0.00001  -0.00042  -0.00043   1.87480
    A7        1.97320   0.00013   0.00009   0.00068   0.00076   1.97396
    A8        1.90899  -0.00003  -0.00002   0.00001  -0.00001   1.90898
    A9        1.90899  -0.00003  -0.00002   0.00001  -0.00001   1.90898
   A10        1.90899  -0.00003  -0.00002   0.00001  -0.00001   1.90898
   A11        1.90899  -0.00003  -0.00002   0.00000  -0.00001   1.90898
   A12        1.85065  -0.00002  -0.00002  -0.00079  -0.00081   1.84984
   A13        1.94061  -0.00003  -0.00001  -0.00026  -0.00027   1.94034
   A14        1.94705   0.00003   0.00010   0.00022   0.00032   1.94737
   A15        1.94061  -0.00003  -0.00001  -0.00026  -0.00027   1.94034
   A16        1.87854   0.00002  -0.00004   0.00036   0.00033   1.87887
   A17        1.87524  -0.00001  -0.00001  -0.00042  -0.00043   1.87480
   A18        1.87854   0.00002  -0.00004   0.00037   0.00033   1.87887
    D1       -3.14159   0.00000   0.00000   0.00000   0.00000  -3.14159
    D2        1.00991  -0.00003  -0.00002  -0.00047  -0.00049   1.00941
    D3       -1.00990   0.00003   0.00002   0.00047   0.00049  -1.00941
    D4        1.04436  -0.00003  -0.00001  -0.00044  -0.00045   1.04391
    D5       -1.08733  -0.00005  -0.00003  -0.00091  -0.00095  -1.08827
    D6       -3.10714   0.00000   0.00001   0.00003   0.00004  -3.10710
    D7       -1.04436   0.00003   0.00001   0.00044   0.00045  -1.04391
    D8        3.10714   0.00000  -0.00001  -0.00003  -0.00004   3.10710
    D9        1.08733   0.00005   0.00004   0.00091   0.00094   1.08827
   D10       -1.04436   0.00003   0.00001   0.00044   0.00045  -1.04391
   D11        3.14159   0.00000   0.00000   0.00000   0.00000   3.14159
   D12        1.04436  -0.00003  -0.00001  -0.00044  -0.00045   1.04391
   D13        1.08733   0.00005   0.00003   0.00091   0.00095   1.08827
   D14       -1.00991   0.00003   0.00002   0.00047   0.00049  -1.00941
   D15       -3.10714   0.00000   0.00001   0.00003   0.00004  -3.10710
   D16        3.10714   0.00000  -0.00001  -0.00003  -0.00004   3.10710
   D17        1.00990  -0.00003  -0.00002  -0.00047  -0.00049   1.00941
   D18       -1.08733  -0.00005  -0.00003  -0.00091  -0.00094  -1.08827
         Item               Value     Threshold  Converged?
 Maximum Force            0.000143     0.000450     YES
 RMS     Force            0.000044     0.000300     YES
 Maximum Displacement     0.000723     0.001800     YES
 RMS     Displacement     0.000240     0.001200     YES
 Predicted change in Energy=-3.319082D-07
 Optimization completed.
    -- Stationary point found.
                           ----------------------------
                           !   Optimized Parameters   !
                           ! (Angstroms and Degrees)  !
 --------------------------                            --------------------------
 ! Name  Definition              Value          Derivative Info.                !
 --------------------------------------------------------------------------------
 ! R1    R(1,2)                  1.5431         -DE/DX =   -0.0001              !
 ! R2    R(1,4)                  1.1022         -DE/DX =    0.0                 !
 ! R3    R(1,5)                  1.1032         -DE/DX =    0.0                 !
 ! R4    R(1,6)                  1.1032         -DE/DX =    0.0                 !
 ! R5    R(2,3)                  1.5431         -DE/DX =   -0.0001              !
 ! R6    R(2,7)                  1.1049         -DE/DX =    0.0                 !
 ! R7    R(2,8)                  1.1049         -DE/DX =    0.0                 !
 ! R8    R(3,9)                  1.1032         -DE/DX =    0.0                 !
 ! R9    R(3,10)                 1.1022         -DE/DX =    0.0                 !
 ! R10   R(3,11)                 1.1032         -DE/DX =    0.0                 !
 ! A1    A(2,1,4)              111.5577         -DE/DX =    0.0                 !
 ! A2    A(2,1,5)              111.1889         -DE/DX =    0.0                 !
 ! A3    A(2,1,6)              111.1889         -DE/DX =    0.0                 !
 ! A4    A(4,1,5)              107.6323         -DE/DX =    0.0                 !
 ! A5    A(4,1,6)              107.6323         -DE/DX =    0.0                 !
 ! A6    A(5,1,6)              107.4431         -DE/DX =    0.0                 !
 ! A7    A(1,2,3)              113.0563         -DE/DX =    0.0001              !
 ! A8    A(1,2,7)              109.3772         -DE/DX =    0.0                 !
 ! A9    A(1,2,8)              109.3772         -DE/DX =    0.0                 !
 ! A10   A(3,2,7)              109.3772         -DE/DX =    0.0                 !
 ! A11   A(3,2,8)              109.3773         -DE/DX =    0.0                 !
 ! A12   A(7,2,8)              106.0342         -DE/DX =    0.0                 !
 ! A13   A(2,3,9)              111.1889         -DE/DX =    0.0                 !
 ! A14   A(2,3,10)             111.5578         -DE/DX =    0.0                 !
 ! A15   A(2,3,11)             111.1889         -DE/DX =    0.0                 !
 ! A16   A(9,3,10)             107.6323         -DE/DX =    0.0                 !
 ! A17   A(9,3,11)             107.4431         -DE/DX =    0.0                 !
 ! A18   A(10,3,11)            107.6322         -DE/DX =    0.0                 !
 ! D1    D(4,1,2,3)           -180.0            -DE/DX =    0.0                 !
 ! D2    D(4,1,2,7)             57.8634         -DE/DX =    0.0                 !
 ! D3    D(4,1,2,8)            -57.8632         -DE/DX =    0.0                 !
 ! D4    D(5,1,2,3)             59.8374         -DE/DX =    0.0                 !
 ! D5    D(5,1,2,7)            -62.2993         -DE/DX =   -0.0001              !
 ! D6    D(5,1,2,8)           -178.0258         -DE/DX =    0.0                 !
 ! D7    D(6,1,2,3)            -59.8374         -DE/DX =    0.0                 !
 ! D8    D(6,1,2,7)            178.0259         -DE/DX =    0.0                 !
 ! D9    D(6,1,2,8)             62.2994         -DE/DX =    0.0001              !
 ! D10   D(1,2,3,9)            -59.8374         -DE/DX =    0.0                 !
 ! D11   D(1,2,3,10)           179.9999         -DE/DX =    0.0                 !
 ! D12   D(1,2,3,11)            59.8374         -DE/DX =    0.0                 !
 ! D13   D(7,2,3,9)             62.2993         -DE/DX =    0.0001              !
 ! D14   D(7,2,3,10)           -57.8634         -DE/DX =    0.0                 !
 ! D15   D(7,2,3,11)          -178.0259         -DE/DX =    0.0                 !
 ! D16   D(8,2,3,9)            178.0258         -DE/DX =    0.0                 !
 ! D17   D(8,2,3,10)            57.8632         -DE/DX =    0.0                 !
 ! D18   D(8,2,3,11)           -62.2993         -DE/DX =   -0.0001              !
 --------------------------------------------------------------------------------
 GradGradGradGradGradGradGradGradGradGradGradGradGradGradGradGradGradGrad

                          Input orientation:                          
 ---------------------------------------------------------------------
 Center     Atomic      Atomic             Coordinates (Angstroms)
 Number     Number       Type             X           Y           Z
 ---------------------------------------------------------------------
      1          6           0        1.032886   -0.069832    0.008961
      2          6           0        2.575246   -0.071900   -0.039269
      3          6           0        3.134869   -0.133487   -1.476011
      4          1           0        0.660179   -0.025412    1.045229
      5          1           0        0.618181   -0.979924   -0.456583
      6          1           0        0.618181    0.797083   -0.532755
      7          1           0        2.959007   -0.930473    0.540751
      8          1           0        2.959008    0.833156    0.465153
      9          1           0        2.797838   -1.045930   -1.996429
     10          1           0        4.237005   -0.133728   -1.481665
     11          1           0        2.797838    0.731076   -2.072601
 ---------------------------------------------------------------------
                    Distance matrix (angstroms):
                    1          2          3          4          5
     1  C    0.000000
     2  C    1.543115   0.000000
     3  C    2.574398   1.543114   0.000000
     4  H    1.102150   2.201312   3.534462   0.000000
     5  H    1.103167   2.197444   2.844189   1.779971   0.000000
     6  H    1.103168   2.197444   2.844189   1.779971   1.778638
     7  H    2.175648   1.104917   2.175648   2.521556   2.544914
     8  H    2.175648   1.104917   2.175648   2.521555   3.101020
     9  H    2.844189   2.197444   1.103167   3.855221   2.669530
    10  H    3.534462   2.201312   1.102150   4.380709   3.855221
    11  H    2.844189   2.197444   1.103168   3.855220   3.207794
                    6          7          8          9         10
     6  H    0.000000
     7  H    3.101020   0.000000
     8  H    2.544915   1.765248   0.000000
     9  H    3.207794   2.544914   3.101020   0.000000
    10  H    3.855220   2.521556   2.521555   1.779971   0.000000
    11  H    2.669529   3.101021   2.544915   1.778638   1.779970
                   11
    11  H    0.000000
 Stoichiometry    C3H8
 Framework group  C1[X(C3H8)]
 Deg. of freedom    27
 Full point group                 C1      NOp   1
 Largest Abelian subgroup         C1      NOp   1
 Largest concise Abelian subgroup C1      NOp   1
                         Standard orientation:                         
 ---------------------------------------------------------------------
 Center     Atomic      Atomic             Coordinates (Angstroms)
 Number     Number       Type             X           Y           Z
 ---------------------------------------------------------------------
      1          6           0        1.287199   -0.261433    0.000000
      2          6           0        0.000000    0.589637    0.000000
      3          6           0       -1.287199   -0.261433    0.000000
      4          1           0        2.190354    0.370268    0.000001
      5          1           0        1.334765   -0.912453   -0.889319
      6          1           0        1.334764   -0.912454    0.889319
      7          1           0        0.000000    1.254329   -0.882625
      8          1           0        0.000000    1.254330    0.882624
      9          1           0       -1.334765   -0.912453   -0.889319
     10          1           0       -2.190354    0.370267    0.000001
     11          1           0       -1.334765   -0.912454    0.889319
 ---------------------------------------------------------------------
 Rotational constants (GHZ):     29.0926668      8.2341138      7.2999477

 **********************************************************************

            Population analysis using the SCF density.

 **********************************************************************

 Orbital symmetries:
       Occupied  (A) (A) (A) (A) (A) (A) (A) (A) (A) (A) (A) (A)
                 (A)
       Virtual   (A) (A) (A) (A) (A) (A) (A) (A) (A) (A) (A) (A)
                 (A) (A) (A) (A) (A) (A) (A) (A) (A) (A) (A) (A)
                 (A) (A) (A) (A) (A) (A) (A) (A) (A) (A) (A) (A)
                 (A) (A) (A) (A) (A) (A) (A) (A) (A) (A) (A) (A)
                 (A) (A) (A) (A) (A) (A) (A) (A) (A) (A) (A) (A)
                 (A) (A) (A) (A) (A) (A) (A) (A) (A) (A) (A) (A)
 The electronic state is 1-A.
 Alpha  occ. eigenvalues --   -9.91776  -9.90951  -9.90950  -0.68659  -0.59704
 Alpha  occ. eigenvalues --   -0.50968  -0.39093  -0.37235  -0.33797  -0.32234
 Alpha  occ. eigenvalues --   -0.28294  -0.28208  -0.27439
 Alpha virt. eigenvalues --    0.07288   0.12157   0.12308   0.12415   0.14278
 Alpha virt. eigenvalues --    0.16497   0.16682   0.16684   0.19544   0.23082
 Alpha virt. eigenvalues --    0.47144   0.48145   0.50684   0.51579   0.53818
 Alpha virt. eigenvalues --    0.60769   0.64049   0.66459   0.72456   0.80022
 Alpha virt. eigenvalues --    0.80405   0.81234   0.84072   0.84516   0.87695
 Alpha virt. eigenvalues --    0.88331   0.89891   0.99332   1.25870   1.26351
 Alpha virt. eigenvalues --    1.32125   1.48108   1.50181   1.60814   1.63622
 Alpha virt. eigenvalues --    1.75740   1.79073   1.83921   1.98652   1.98811
 Alpha virt. eigenvalues --    1.99726   2.01225   2.03478   2.03745   2.03840
 Alpha virt. eigenvalues --    2.18015   2.18049   2.22839   2.24873   2.35465
 Alpha virt. eigenvalues --    2.38177   2.43143   2.57110   2.61237   2.64329
 Alpha virt. eigenvalues --    2.66237   2.72821   2.78522   2.81932   2.82291
 Alpha virt. eigenvalues --    2.82390   3.05798   3.12765   3.21880   3.25551
 Alpha virt. eigenvalues --    3.33833   3.39186   3.40785   3.46844   4.20130
 Alpha virt. eigenvalues --    4.39978   4.54218
          Condensed to atoms (all electrons):
              1          2          3          4          5          6
     1  C    4.877560   0.392638  -0.046138   0.371411   0.380360   0.380360
     2  C    0.392638   4.781773   0.392638  -0.025674  -0.034612  -0.034612
     3  C   -0.046138   0.392638   4.877559   0.004463  -0.004481  -0.004481
     4  H    0.371411  -0.025674   0.004463   0.636686  -0.033309  -0.033309
     5  H    0.380360  -0.034612  -0.004481  -0.033309   0.632755  -0.035080
     6  H    0.380360  -0.034612  -0.004481  -0.033309  -0.035080   0.632755
     7  H   -0.037904   0.379753  -0.037904  -0.003039  -0.005297   0.005694
     8  H   -0.037904   0.379753  -0.037904  -0.003039   0.005694  -0.005297
     9  H   -0.004481  -0.034612   0.380360  -0.000003   0.005337  -0.000509
    10  H    0.004463  -0.025674   0.371411  -0.000213  -0.000003  -0.000003
    11  H   -0.004481  -0.034612   0.380360  -0.000003  -0.000509   0.005337
              7          8          9         10         11
     1  C   -0.037904  -0.037904  -0.004481   0.004463  -0.004481
     2  C    0.379753   0.379753  -0.034612  -0.025674  -0.034612
     3  C   -0.037904  -0.037904   0.380360   0.371411   0.380360
     4  H   -0.003039  -0.003039  -0.000003  -0.000213  -0.000003
     5  H   -0.005297   0.005694   0.005337  -0.000003  -0.000509
     6  H    0.005694  -0.005297  -0.000509  -0.000003   0.005337
     7  H    0.663342  -0.041948  -0.005297  -0.003039   0.005694
     8  H   -0.041948   0.663341   0.005694  -0.003039  -0.005297
     9  H   -0.005297   0.005694   0.632755  -0.033309  -0.035080
    10  H   -0.003039  -0.003039  -0.033309   0.636686  -0.033309
    11  H    0.005694  -0.005297  -0.035080  -0.033309   0.632755
 Mulliken atomic charges:
              1
     1  C   -0.275884
     2  C   -0.136756
     3  C   -0.275884
     4  H    0.086029
     5  H    0.089144
     6  H    0.089144
     7  H    0.079946
     8  H    0.079946
     9  H    0.089144
    10  H    0.086029
    11  H    0.089144
 Sum of Mulliken atomic charges =   0.00000
 Mulliken charges with hydrogens summed into heavy atoms:
              1
     1  C   -0.011568
     2  C    0.023135
     3  C   -0.011568
 Sum of Mulliken charges with hydrogens summed into heavy atoms =   0.00000
 Electronic spatial extent (au):  <R**2>=            230.3220
 Charge=              0.0000 electrons
 Dipole moment (field-independent basis, Debye):
    X=              0.0000    Y=              0.0475    Z=              0.0000  Tot=              0.0475
 Quadrupole moment (field-independent basis, Debye-Ang):
   XX=            -21.8959   YY=            -21.6495   ZZ=            -21.3628
   XY=              0.0000   XZ=              0.0000   YZ=              0.0000
 Traceless Quadrupole moment (field-independent basis, Debye-Ang):
   XX=             -0.2598   YY=             -0.0134   ZZ=              0.2733
   XY=              0.0000   XZ=              0.0000   YZ=              0.0000
 Octapole moment (field-independent basis, Debye-Ang**2):
  XXX=              0.0000  YYY=              0.1774  ZZZ=              0.0000  XYY=              0.0000
  XXY=              1.0541  XXZ=              0.0000  XZZ=              0.0000  YZZ=             -0.4276
  YYZ=              0.0000  XYZ=              0.0000
 Hexadecapole moment (field-independent basis, Debye-Ang**3):
 XXXX=           -204.7728 YYYY=            -70.3498 ZZZZ=            -43.5511 XXXY=              0.0000
 XXXZ=              0.0000 YYYX=              0.0000 YYYZ=              0.0000 ZZZX=              0.0000
 ZZZY=              0.0000 XXYY=            -45.5613 XXZZ=            -42.0953 YYZZ=            -17.3014
 XXYZ=              0.0000 YYXZ=              0.0000 ZZXY=              0.0000
 N-N= 8.170970564138D+01 E-N=-4.379627173707D+02  KE= 1.177816678601D+02
 1\1\GINC-ABCSIM\FOpt\RBLYP\6-31G(d,p)\C3H8\MATEUS\10-Jul-2019\0\\#opt 
 freq blyp/6-31g(d,p)\\molecule_/home/mateus/github/db_singletoxygen 1\
 \0,1\C,1.0328864433,-0.069832403,0.0089609164\C,2.5752457093,-0.071900
 0808,-0.0392685248\C,3.1348692961,-0.1334866206,-1.4760111517\H,0.6601
 793483,-0.0254115069,1.045228881\H,0.6181809439,-0.9799239944,-0.45658
 26246\H,0.6181813544,0.7970826009,-0.5327554711\H,2.9590071148,-0.9304
 726349,0.5407505931\H,2.9590079067,0.8331561008,0.4651528589\H,2.79783
 83677,-1.0459301608,-1.9964291513\H,4.2370050976,-0.1337277778,-1.4816
 650756\H,2.797838418,0.7310764626,-2.0726012497\\Version=EM64L-G09RevC
 .01\State=1-A\HF=-119.0601705\RMSD=6.300e-09\RMSF=1.015e-04\Dipole=0.0
 107987,0.0006541,0.0152575\Quadrupole=-0.1321097,0.2026578,-0.0705481,
 0.0036997,0.0862691,-0.0117313\PG=C01 [X(C3H8)]\\@


 EDUCATION IS NOT TRAINING BUT RATHER THE PROCESS THAT EQUIPS YOU TO
 ENTERTAIN YOURSELF, A FRIEND, OR AN IDEA.  -- WALLACE STERLING
 Job cpu time:  0 days  0 hours  0 minutes 46.4 seconds.
 File lengths (MBytes):  RWF=      9 Int=      0 D2E=      0 Chk=      2 Scr=      1
 Normal termination of Gaussian 09 at Wed Jul 10 16:52:11 2019.
 Link1:  Proceeding to internal job step number  2.
 ---------------------------------------------------------------------
 #N Geom=AllCheck Guess=TCheck SCRF=Check GenChk RBLYP/6-31G(d,p) Freq
 ---------------------------------------------------------------------
 1/10=4,29=7,30=1,38=1,40=1/1,3;
 2/12=2,40=1/2;
 3/5=1,6=6,7=101,11=2,14=-4,16=1,25=1,30=1,70=2,71=2,74=402,116=1/1,2,3;
 4/5=101/1;
 5/5=2,98=1/2;
 8/6=4,10=90,11=11/1;
 11/6=1,8=1,9=11,15=111,16=1/1,2,10;
 10/6=1/2;
 6/7=2,8=2,9=2,10=2,18=1,28=1/1;
 7/8=1,10=1,25=1/1,2,3,16;
 1/10=4,30=1/3;
 99//99;
 Structure from the checkpoint file:  /opt/g09/Gau-4700.chk
 -----------------------------------------------
 molecule_/home/mateus/github/db_singletoxygen 1
 -----------------------------------------------
 Charge =  0 Multiplicity = 1
 Redundant internal coordinates found in file.
 C,0,1.0328864433,-0.069832403,0.0089609164
 C,0,2.5752457093,-0.0719000808,-0.0392685248
 C,0,3.1348692961,-0.1334866206,-1.4760111517
 H,0,0.6601793483,-0.0254115069,1.045228881
 H,0,0.6181809439,-0.9799239944,-0.4565826246
 H,0,0.6181813544,0.7970826009,-0.5327554711
 H,0,2.9590071148,-0.9304726349,0.5407505931
 H,0,2.9590079067,0.8331561008,0.4651528589
 H,0,2.7978383677,-1.0459301608,-1.9964291513
 H,0,4.2370050976,-0.1337277778,-1.4816650756
 H,0,2.797838418,0.7310764626,-2.0726012497
 Recover connectivity data from disk.

 GradGradGradGradGradGradGradGradGradGradGradGradGradGradGradGradGradGrad
 Berny optimization.
 Initialization pass.
                           ----------------------------
                           !    Initial Parameters    !
                           ! (Angstroms and Degrees)  !
 --------------------------                            --------------------------
 ! Name  Definition              Value          Derivative Info.                !
 --------------------------------------------------------------------------------
 ! R1    R(1,2)                  1.5431         calculate D2E/DX2 analytically  !
 ! R2    R(1,4)                  1.1022         calculate D2E/DX2 analytically  !
 ! R3    R(1,5)                  1.1032         calculate D2E/DX2 analytically  !
 ! R4    R(1,6)                  1.1032         calculate D2E/DX2 analytically  !
 ! R5    R(2,3)                  1.5431         calculate D2E/DX2 analytically  !
 ! R6    R(2,7)                  1.1049         calculate D2E/DX2 analytically  !
 ! R7    R(2,8)                  1.1049         calculate D2E/DX2 analytically  !
 ! R8    R(3,9)                  1.1032         calculate D2E/DX2 analytically  !
 ! R9    R(3,10)                 1.1022         calculate D2E/DX2 analytically  !
 ! R10   R(3,11)                 1.1032         calculate D2E/DX2 analytically  !
 ! A1    A(2,1,4)              111.5577         calculate D2E/DX2 analytically  !
 ! A2    A(2,1,5)              111.1889         calculate D2E/DX2 analytically  !
 ! A3    A(2,1,6)              111.1889         calculate D2E/DX2 analytically  !
 ! A4    A(4,1,5)              107.6323         calculate D2E/DX2 analytically  !
 ! A5    A(4,1,6)              107.6323         calculate D2E/DX2 analytically  !
 ! A6    A(5,1,6)              107.4431         calculate D2E/DX2 analytically  !
 ! A7    A(1,2,3)              113.0563         calculate D2E/DX2 analytically  !
 ! A8    A(1,2,7)              109.3772         calculate D2E/DX2 analytically  !
 ! A9    A(1,2,8)              109.3772         calculate D2E/DX2 analytically  !
 ! A10   A(3,2,7)              109.3772         calculate D2E/DX2 analytically  !
 ! A11   A(3,2,8)              109.3773         calculate D2E/DX2 analytically  !
 ! A12   A(7,2,8)              106.0342         calculate D2E/DX2 analytically  !
 ! A13   A(2,3,9)              111.1889         calculate D2E/DX2 analytically  !
 ! A14   A(2,3,10)             111.5578         calculate D2E/DX2 analytically  !
 ! A15   A(2,3,11)             111.1889         calculate D2E/DX2 analytically  !
 ! A16   A(9,3,10)             107.6323         calculate D2E/DX2 analytically  !
 ! A17   A(9,3,11)             107.4431         calculate D2E/DX2 analytically  !
 ! A18   A(10,3,11)            107.6322         calculate D2E/DX2 analytically  !
 ! D1    D(4,1,2,3)           -180.0            calculate D2E/DX2 analytically  !
 ! D2    D(4,1,2,7)             57.8634         calculate D2E/DX2 analytically  !
 ! D3    D(4,1,2,8)            -57.8632         calculate D2E/DX2 analytically  !
 ! D4    D(5,1,2,3)             59.8374         calculate D2E/DX2 analytically  !
 ! D5    D(5,1,2,7)            -62.2993         calculate D2E/DX2 analytically  !
 ! D6    D(5,1,2,8)           -178.0258         calculate D2E/DX2 analytically  !
 ! D7    D(6,1,2,3)            -59.8374         calculate D2E/DX2 analytically  !
 ! D8    D(6,1,2,7)            178.0259         calculate D2E/DX2 analytically  !
 ! D9    D(6,1,2,8)             62.2994         calculate D2E/DX2 analytically  !
 ! D10   D(1,2,3,9)            -59.8374         calculate D2E/DX2 analytically  !
 ! D11   D(1,2,3,10)           179.9999         calculate D2E/DX2 analytically  !
 ! D12   D(1,2,3,11)            59.8374         calculate D2E/DX2 analytically  !
 ! D13   D(7,2,3,9)             62.2993         calculate D2E/DX2 analytically  !
 ! D14   D(7,2,3,10)           -57.8634         calculate D2E/DX2 analytically  !
 ! D15   D(7,2,3,11)          -178.0259         calculate D2E/DX2 analytically  !
 ! D16   D(8,2,3,9)            178.0258         calculate D2E/DX2 analytically  !
 ! D17   D(8,2,3,10)            57.8632         calculate D2E/DX2 analytically  !
 ! D18   D(8,2,3,11)           -62.2993         calculate D2E/DX2 analytically  !
 --------------------------------------------------------------------------------
 Trust Radius=3.00D-01 FncErr=1.00D-07 GrdErr=1.00D-07
 Number of steps in this run=      2 maximum allowed number of steps=      2.
 GradGradGradGradGradGradGradGradGradGradGradGradGradGradGradGradGradGrad

                          Input orientation:                          
 ---------------------------------------------------------------------
 Center     Atomic      Atomic             Coordinates (Angstroms)
 Number     Number       Type             X           Y           Z
 ---------------------------------------------------------------------
      1          6           0        1.032886   -0.069832    0.008961
      2          6           0        2.575246   -0.071900   -0.039269
      3          6           0        3.134869   -0.133487   -1.476011
      4          1           0        0.660179   -0.025412    1.045229
      5          1           0        0.618181   -0.979924   -0.456583
      6          1           0        0.618181    0.797083   -0.532755
      7          1           0        2.959007   -0.930473    0.540751
      8          1           0        2.959008    0.833156    0.465153
      9          1           0        2.797838   -1.045930   -1.996429
     10          1           0        4.237005   -0.133728   -1.481665
     11          1           0        2.797838    0.731076   -2.072601
 ---------------------------------------------------------------------
                    Distance matrix (angstroms):
                    1          2          3          4          5
     1  C    0.000000
     2  C    1.543115   0.000000
     3  C    2.574398   1.543114   0.000000
     4  H    1.102150   2.201312   3.534462   0.000000
     5  H    1.103167   2.197444   2.844189   1.779971   0.000000
     6  H    1.103168   2.197444   2.844189   1.779971   1.778638
     7  H    2.175648   1.104917   2.175648   2.521556   2.544914
     8  H    2.175648   1.104917   2.175648   2.521555   3.101020
     9  H    2.844189   2.197444   1.103167   3.855221   2.669530
    10  H    3.534462   2.201312   1.102150   4.380709   3.855221
    11  H    2.844189   2.197444   1.103168   3.855220   3.207794
                    6          7          8          9         10
     6  H    0.000000
     7  H    3.101020   0.000000
     8  H    2.544915   1.765248   0.000000
     9  H    3.207794   2.544914   3.101020   0.000000
    10  H    3.855220   2.521556   2.521555   1.779971   0.000000
    11  H    2.669529   3.101021   2.544915   1.778638   1.779970
                   11
    11  H    0.000000
 Stoichiometry    C3H8
 Framework group  C1[X(C3H8)]
 Deg. of freedom    27
 Full point group                 C1      NOp   1
 Largest Abelian subgroup         C1      NOp   1
 Largest concise Abelian subgroup C1      NOp   1
                         Standard orientation:                         
 ---------------------------------------------------------------------
 Center     Atomic      Atomic             Coordinates (Angstroms)
 Number     Number       Type             X           Y           Z
 ---------------------------------------------------------------------
      1          6           0        1.287199   -0.261433    0.000000
      2          6           0        0.000000    0.589637    0.000000
      3          6           0       -1.287199   -0.261433    0.000000
      4          1           0        2.190354    0.370268    0.000001
      5          1           0        1.334765   -0.912453   -0.889319
      6          1           0        1.334764   -0.912454    0.889319
      7          1           0        0.000000    1.254329   -0.882625
      8          1           0        0.000000    1.254330    0.882624
      9          1           0       -1.334765   -0.912453   -0.889319
     10          1           0       -2.190354    0.370267    0.000001
     11          1           0       -1.334765   -0.912454    0.889319
 ---------------------------------------------------------------------
 Rotational constants (GHZ):     29.0926668      8.2341138      7.2999477
 Standard basis: 6-31G(d,p) (6D, 7F)
 There are    85 symmetry adapted basis functions of A   symmetry.
 Integral buffers will be    131072 words long.
 Raffenetti 2 integral format.
 Two-electron integral symmetry is turned on.
    85 basis functions,   140 primitive gaussians,    85 cartesian basis functions
    13 alpha electrons       13 beta electrons
       nuclear repulsion energy        81.7097056414 Hartrees.
 NAtoms=   11 NActive=   11 NUniq=   11 SFac= 1.00D+00 NAtFMM=   60 NAOKFM=F Big=F
 One-electron integrals computed using PRISM.
 NBasis=    85 RedAO= T  NBF=    85
 NBsUse=    85 1.00D-06 NBFU=    85
 Initial guess read from the checkpoint file:  /opt/g09/Gau-4700.chk
 B after Tr=     0.000000    0.000000    0.000000
         Rot=    1.000000    0.000000    0.000000    0.000000 Ang=   0.00 deg.
 Initial guess orbital symmetries:
       Occupied  (A) (A) (A) (A) (A) (A) (A) (A) (A) (A) (A) (A)
                 (A)
       Virtual   (A) (A) (A) (A) (A) (A) (A) (A) (A) (A) (A) (A)
                 (A) (A) (A) (A) (A) (A) (A) (A) (A) (A) (A) (A)
                 (A) (A) (A) (A) (A) (A) (A) (A) (A) (A) (A) (A)
                 (A) (A) (A) (A) (A) (A) (A) (A) (A) (A) (A) (A)
                 (A) (A) (A) (A) (A) (A) (A) (A) (A) (A) (A) (A)
                 (A) (A) (A) (A) (A) (A) (A) (A) (A) (A) (A) (A)
 Requested convergence on RMS density matrix=1.00D-08 within 128 cycles.
 Requested convergence on MAX density matrix=1.00D-06.
 Requested convergence on             energy=1.00D-06.
 No special actions if energy rises.
 Keep J ints in memory in canonical form, NReq=7718748.
 SCF Done:  E(RB-LYP) =  -119.060170539     A.U. after    1 cycles
             Convg  =    0.1738D-08             -V/T =  2.0109
 Range of M.O.s used for correlation:     1    85
 NBasis=    85 NAE=    13 NBE=    13 NFC=     0 NFV=     0
 NROrb=     85 NOA=    13 NOB=    13 NVA=    72 NVB=    72
 Symmetrizing basis deriv contribution to polar:
 IMax=3 JMax=2 DiffMx= 0.00D+00
 G2DrvN: will do    12 centers at a time, making    1 passes doing MaxLOS=2.
 Calling FoFCou, ICntrl=  3507 FMM=F I1Cent=   0 AccDes= 0.00D+00.
 FoFDir/FoFCou used for L=0 through L=2.
[...]
 Number     Number              X              Y              Z
 -------------------------------------------------------------------
      1        6           0.000105410    0.000008700    0.000199390
      2        6          -0.000267694   -0.000016433   -0.000377873
      3        6           0.000153233    0.000007431    0.000165489
      4        1          -0.000001985   -0.000000482   -0.000010480
      5        1           0.000021364    0.000035712   -0.000041374
      6        1           0.000021409   -0.000039213   -0.000038134
      7        1           0.000033429    0.000038447    0.000045642
      8        1           0.000033476   -0.000034222    0.000048810
      9        1          -0.000044661    0.000037666    0.000005254
     10        1          -0.000009279   -0.000000334   -0.000005308
     11        1          -0.000044703   -0.000037272    0.000008584
 -------------------------------------------------------------------
 Cartesian Forces:  Max     0.000377873 RMS     0.000101498

 GradGradGradGradGradGradGradGradGradGradGradGradGradGradGradGradGradGrad
 Berny optimization.
 Internal  Forces:  Max     0.000142701 RMS     0.000044169
 Search for a local minimum.
 Step number   1 out of a maximum of    2
 All quantities printed in internal units (Hartrees-Bohrs-Radians)
 Second derivative matrix not updated -- analytic derivatives used.
 ITU=  0
     Eigenvalues ---    0.00224   0.00262   0.03392   0.03841   0.04401
     Eigenvalues ---    0.04450   0.04479   0.04540   0.06860   0.09953
     Eigenvalues ---    0.11590   0.12001   0.12432   0.13809   0.14609
     Eigenvalues ---    0.15904   0.20681   0.26789   0.27971   0.30941
     Eigenvalues ---    0.31680   0.31792   0.31827   0.31924   0.32051
     Eigenvalues ---    0.32712   0.32841
 Angle between quadratic step and forces=  42.94 degrees.
 Linear search not attempted -- first point.
 Iteration  1 RMS(Cart)=  0.00030954 RMS(Int)=  0.00000020
 Iteration  2 RMS(Cart)=  0.00000034 RMS(Int)=  0.00000010
 Variable       Old X    -DE/DX   Delta X   Delta X   Delta X     New X
                                 (Linear)    (Quad)   (Total)
    R1        2.91606  -0.00014   0.00000  -0.00068  -0.00068   2.91539
    R2        2.08276  -0.00001   0.00000  -0.00010  -0.00010   2.08266
    R3        2.08468  -0.00002   0.00000  -0.00001  -0.00001   2.08467
    R4        2.08468  -0.00002   0.00000  -0.00001  -0.00001   2.08467
    R5        2.91606  -0.00014   0.00000  -0.00068  -0.00068   2.91539
    R6        2.08799   0.00001   0.00000   0.00012   0.00012   2.08811
    R7        2.08799   0.00001   0.00000   0.00012   0.00012   2.08811
    R8        2.08468  -0.00002   0.00000  -0.00001  -0.00001   2.08467
    R9        2.08276  -0.00001   0.00000  -0.00010  -0.00010   2.08266
   R10        2.08468  -0.00002   0.00000  -0.00001  -0.00001   2.08467
    A1        1.94705   0.00003   0.00000   0.00035   0.00035   1.94740
    A2        1.94061  -0.00003   0.00000  -0.00020  -0.00020   1.94041
    A3        1.94061  -0.00003   0.00000  -0.00020  -0.00020   1.94041
    A4        1.87854   0.00002   0.00000   0.00035   0.00035   1.87889
    A5        1.87854   0.00002   0.00000   0.00035   0.00035   1.87889
    A6        1.87524  -0.00001   0.00000  -0.00065  -0.00065   1.87458
    A7        1.97320   0.00013   0.00000   0.00102   0.00102   1.97423
    A8        1.90899  -0.00003   0.00000   0.00001   0.00001   1.90901
    A9        1.90899  -0.00003   0.00000   0.00001   0.00001   1.90901
   A10        1.90899  -0.00003   0.00000   0.00001   0.00001   1.90901
   A11        1.90899  -0.00003   0.00000   0.00001   0.00001   1.90901
   A12        1.85065  -0.00002   0.00000  -0.00122  -0.00122   1.84942
   A13        1.94061  -0.00003   0.00000  -0.00020  -0.00020   1.94041
   A14        1.94705   0.00003   0.00000   0.00035   0.00035   1.94740
   A15        1.94061  -0.00003   0.00000  -0.00020  -0.00020   1.94041
   A16        1.87854   0.00002   0.00000   0.00035   0.00035   1.87889
   A17        1.87524  -0.00001   0.00000  -0.00065  -0.00065   1.87458
   A18        1.87854   0.00002   0.00000   0.00035   0.00035   1.87889
    D1       -3.14159   0.00000   0.00000   0.00000   0.00000  -3.14159
    D2        1.00991  -0.00003   0.00000  -0.00073  -0.00073   1.00918
    D3       -1.00990   0.00003   0.00000   0.00072   0.00072  -1.00918
    D4        1.04436  -0.00003   0.00000  -0.00055  -0.00055   1.04381
    D5       -1.08733  -0.00005   0.00000  -0.00127  -0.00127  -1.08860
    D6       -3.10714   0.00000   0.00000   0.00018   0.00018  -3.10696
    D7       -1.04436   0.00003   0.00000   0.00055   0.00055  -1.04381
    D8        3.10714   0.00000   0.00000  -0.00018  -0.00018   3.10696
    D9        1.08733   0.00005   0.00000   0.00127   0.00127   1.08860
   D10       -1.04436   0.00003   0.00000   0.00055   0.00055  -1.04381
   D11        3.14159   0.00000   0.00000   0.00000   0.00000  -3.14159
   D12        1.04436  -0.00003   0.00000  -0.00055  -0.00055   1.04381
   D13        1.08733   0.00005   0.00000   0.00127   0.00127   1.08860
   D14       -1.00991   0.00003   0.00000   0.00073   0.00073  -1.00918
   D15       -3.10714   0.00000   0.00000   0.00018   0.00018  -3.10696
   D16        3.10714   0.00000   0.00000  -0.00018  -0.00018   3.10696
   D17        1.00990  -0.00003   0.00000  -0.00072  -0.00072   1.00918
   D18       -1.08733  -0.00005   0.00000  -0.00127  -0.00127  -1.08860
         Item               Value     Threshold  Converged?
 Maximum Force            0.000143     0.000450     YES
 RMS     Force            0.000044     0.000300     YES
 Maximum Displacement     0.000987     0.001800     YES
 RMS     Displacement     0.000310     0.001200     YES
 Predicted change in Energy=-4.269568D-07
 Optimization completed.
    -- Stationary point found.
                           ----------------------------
                           !   Optimized Parameters   !
                           ! (Angstroms and Degrees)  !
 --------------------------                            --------------------------
 ! Name  Definition              Value          Derivative Info.                !
 --------------------------------------------------------------------------------
 ! R1    R(1,2)                  1.5431         -DE/DX =   -0.0001              !
 ! R2    R(1,4)                  1.1022         -DE/DX =    0.0                 !
 ! R3    R(1,5)                  1.1032         -DE/DX =    0.0                 !
 ! R4    R(1,6)                  1.1032         -DE/DX =    0.0                 !
 ! R5    R(2,3)                  1.5431         -DE/DX =   -0.0001              !
 ! R6    R(2,7)                  1.1049         -DE/DX =    0.0                 !
 ! R7    R(2,8)                  1.1049         -DE/DX =    0.0                 !
 ! R8    R(3,9)                  1.1032         -DE/DX =    0.0                 !
 ! R9    R(3,10)                 1.1022         -DE/DX =    0.0                 !
 ! R10   R(3,11)                 1.1032         -DE/DX =    0.0                 !
 ! A1    A(2,1,4)              111.5577         -DE/DX =    0.0                 !
 ! A2    A(2,1,5)              111.1889         -DE/DX =    0.0                 !
 ! A3    A(2,1,6)              111.1889         -DE/DX =    0.0                 !
 ! A4    A(4,1,5)              107.6323         -DE/DX =    0.0                 !
 ! A5    A(4,1,6)              107.6323         -DE/DX =    0.0                 !
 ! A6    A(5,1,6)              107.4431         -DE/DX =    0.0                 !
 ! A7    A(1,2,3)              113.0563         -DE/DX =    0.0001              !
 ! A8    A(1,2,7)              109.3772         -DE/DX =    0.0                 !
 ! A9    A(1,2,8)              109.3772         -DE/DX =    0.0                 !
 ! A10   A(3,2,7)              109.3772         -DE/DX =    0.0                 !
 ! A11   A(3,2,8)              109.3773         -DE/DX =    0.0                 !
 ! A12   A(7,2,8)              106.0342         -DE/DX =    0.0                 !
 ! A13   A(2,3,9)              111.1889         -DE/DX =    0.0                 !
 ! A14   A(2,3,10)             111.5578         -DE/DX =    0.0                 !
 ! A15   A(2,3,11)             111.1889         -DE/DX =    0.0                 !
 ! A16   A(9,3,10)             107.6323         -DE/DX =    0.0                 !
 ! A17   A(9,3,11)             107.4431         -DE/DX =    0.0                 !
 ! A18   A(10,3,11)            107.6322         -DE/DX =    0.0                 !
 ! D1    D(4,1,2,3)           -180.0            -DE/DX =    0.0                 !
 ! D2    D(4,1,2,7)             57.8634         -DE/DX =    0.0                 !
 ! D3    D(4,1,2,8)            -57.8632         -DE/DX =    0.0                 !
 ! D4    D(5,1,2,3)             59.8374         -DE/DX =    0.0                 !
 ! D5    D(5,1,2,7)            -62.2993         -DE/DX =   -0.0001              !
 ! D6    D(5,1,2,8)           -178.0258         -DE/DX =    0.0                 !
 ! D7    D(6,1,2,3)            -59.8374         -DE/DX =    0.0                 !
 ! D8    D(6,1,2,7)            178.0259         -DE/DX =    0.0                 !
 ! D9    D(6,1,2,8)             62.2994         -DE/DX =    0.0001              !
 ! D10   D(1,2,3,9)            -59.8374         -DE/DX =    0.0                 !
 ! D11   D(1,2,3,10)          -180.0001         -DE/DX =    0.0                 !
 ! D12   D(1,2,3,11)            59.8374         -DE/DX =    0.0                 !
 ! D13   D(7,2,3,9)             62.2993         -DE/DX =    0.0001              !
 ! D14   D(7,2,3,10)           -57.8634         -DE/DX =    0.0                 !
 ! D15   D(7,2,3,11)          -178.0259         -DE/DX =    0.0                 !
 ! D16   D(8,2,3,9)            178.0258         -DE/DX =    0.0                 !
 ! D17   D(8,2,3,10)            57.8632         -DE/DX =    0.0                 !
 ! D18   D(8,2,3,11)           -62.2993         -DE/DX =   -0.0001              !
 --------------------------------------------------------------------------------
 GradGradGradGradGradGradGradGradGradGradGradGradGradGradGradGradGradGrad

 1\1\GINC-ABCSIM\Freq\RBLYP\6-31G(d,p)\C3H8\MATEUS\10-Jul-2019\0\\#N Ge
 om=AllCheck Guess=TCheck SCRF=Check GenChk RBLYP/6-31G(d,p) Freq\\mole
 cule_/home/mateus/github/db_singletoxygen 1\\0,1\C,1.0328864433,-0.069
 8324066,0.0089609165\C,2.5752457093,-0.0719000808,-0.0392685248\C,3.13
 48692961,-0.1334866206,-1.4760111517\H,0.6601793483,-0.0254115069,1.04
 5228881\H,0.6181809439,-0.9799239944,-0.4565826246\H,0.6181813544,0.79
 70826009,-0.5327554711\H,2.9590071148,-0.9304726349,0.5407505931\H,2.9
 590079067,0.8331561008,0.4651528589\H,2.7978383677,-1.0459301608,-1.99
 64291513\H,4.2370050976,-0.1337277778,-1.4816650756\H,2.797838418,0.73
 10764626,-2.0726012497\\Version=EM64L-G09RevC.01\State=1-A\HF=-119.060
 1705\RMSD=1.738e-09\RMSF=1.015e-04\ZeroPoint=0.101005\Thermal=0.105600
 1\Dipole=0.0107991,0.0006541,0.0152579\DipoleDeriv=0.0672318,0.0004528
 ,0.0105659,0.0022958,0.1395518,-0.0018106,0.0535599,-0.0018105,0.09739
 28,0.1759401,-0.0009372,-0.0218615,-0.0009371,0.1716838,-0.0004808,-0.
 0218616,-0.0004809,0.1604886,0.0738018,0.0023954,0.0558804,0.0005523,0
 .1395398,-0.0020917,0.0128863,-0.0020918,0.0908352,-0.0372504,0.003587
 6,0.083694,0.0042675,0.0568019,-0.0088373,0.0995537,-0.0088372,-0.1489
 788,-0.0237952,-0.0511157,-0.0255047,-0.0804062,-0.1007944,-0.0761505,
 -0.0539381,-0.0840815,0.0121116,-0.0237952,0.0487457,-0.0297853,0.0754
 956,-0.0863064,0.0846036,-0.0606209,0.0925346,-0.0023767,-0.047352,0.0
 632541,-0.0224519,0.0725965,-0.0868072,0.1050497,-0.0228523,0.0918256,
 -0.06969,-0.0473521,-0.0649433,-0.0169567,-0.0742857,-0.1034668,-0.102
 1485,-0.0165562,-0.0889244,-0.0530298,0.0285573,-0.0684932,-0.0359227,
 -0.0504124,-0.1012244,-0.0981444,-0.0070088,-0.0743461,-0.0398108,-0.1
 945432,0.0018858,0.0439947,0.0012058,0.0570904,-0.0021071,0.028135,-0.
 0021071,0.0080252,0.0285571,0.065168,-0.0416523,0.0496279,-0.0860686,0
 .1021176,-0.0112972,0.0783193,-0.0549672\Polar=36.596553,-0.0856712,32
 .8488208,-1.9985975,0.1000084,35.1777736\PG=C01 [X(C3H8)]\NImag=0\\0.4
 3848427,-0.00000299,0.53756449,-0.00007342,0.00033231,0.54529648,-0.17
 357409,-0.00006371,-0.00148660,0.44434094,0.00001418,-0.07570645,0.000
 04566,0.00172355,0.56102197,0.00033055,0.00004565,-0.07464270,0.040201
 39,-0.00378150,0.47295614,-0.01629934,0.00143799,0.03354659,-0.0852693
 7,0.00127328,0.02970484,0.53348739,0.00028803,0.00034239,-0.00010257,0
 .00135116,-0.07586840,-0.00373264,0.00143581,0.53739016,0.00671924,-0.
 00010256,-0.00204602,0.03152199,-0.00373264,-0.16278609,0.03348346,-0.
 00373234,0.45046797,-0.07084351,0.00325689,0.07597813,-0.00931850,0.00
 135354,0.03157618,-0.00665445,-0.00009242,-0.00215606,0.07826319,0.003
 27943,-0.04617676,-0.00957284,-0.00004832,-0.00156703,0.00011381,0.000
 03054,0.00033334,0.00003991,-0.00362122,0.04529833,0.07650400,-0.00957
 284,-0.26908532,-0.00112730,0.00011382,0.00108319,0.00071252,0.0000399
 1,0.00126263,-0.08447741,0.01056978,0.29142153,-0.07688219,-0.07361553
 ,-0.03744912,-0.01308905,-0.02815750,-0.01408854,0.00165737,-0.0006872
 2,-0.00135734,0.00340285,0.00929228,0.00357931,0.08598849,-0.07367411,
 -0.21667911,-0.08666298,0.00006727,0.00061594,0.00049782,0.00032054,0.
 00017093,0.00000445,0.00058514,-0.00057718,0.00017469,0.08193154,0.233
 81058,-0.03763716,-0.08674662,-0.09049516,-0.00011235,0.00091052,-0.00
 063802,0.00039595,0.00109446,0.00076280,-0.01114310,-0.02534098,-0.011
 95402,0.04200200,0.09634454,0.09421195,-0.07688209,0.07014060,-0.04361
 122,-0.01308904,0.02684861,-0.01644641,0.00165738,0.00056855,-0.001411
 18,0.00340284,-0.00895189,0.00436136,0.00387680,-0.00878543,0.00667407
 ,0.08598837,0.07018286,-0.20096994,0.09615144,-0.00007661,0.00048666,-
 0.00059441,-0.00028548,0.00008157,0.00005407,-0.00153656,0.00148521,-0
 .00132897,0.00932432,-0.02026757,0.01363202,-0.07803650,0.21635941,-0.
 04380358,0.09623509,-0.10620411,-0.00010618,-0.00100711,-0.00050876,0.
 00042194,-0.00103595,0.00085216,-0.01105214,0.02418670,-0.01401642,0.0
 0589778,-0.01129363,0.00695799,0.04885902,-0.10683559,0.11166294,-0.01
 363063,0.02632406,-0.01653930,-0.07304836,0.06356946,-0.04334498,0.003
 63022,-0.00992402,0.00681123,0.00120630,-0.00003862,0.00043921,0.00138
 976,-0.00042697,-0.00019745,-0.00670429,-0.00037030,0.00032731,0.08307
 305,-0.00025358,0.00043961,-0.00073728,0.06378921,-0.19630613,0.096807
 50,-0.00100414,0.00154421,-0.00128343,0.00046488,0.00006385,-0.0003120
 6,0.00034682,0.00087379,-0.00013163,-0.00034183,0.00165802,-0.00047031
 ,-0.07095166,0.21040857,0.00028858,-0.00127694,0.00052871,-0.04335439,
 0.09649642,-0.10985658,-0.00925975,0.02425086,-0.01783673,-0.00029255,
 -0.00034710,0.00050542,-0.00015220,0.00016545,-0.00012473,0.00057278,-
 0.00009492,0.00096381,0.04471308,-0.10715262,0.12151831,-0.01363063,-0
 .02764281,-0.01422600,-0.07304854,-0.06704578,-0.03774641,0.00363023,0
 .01047049,0.00593702,0.00120630,0.00007607,0.00043430,-0.00670429,0.00
 039696,0.00029442,0.00138976,0.00040851,-0.00023326,0.00360247,0.00882
 096,0.00528970,0.08307322,0.00027736,0.00061203,0.00073014,-0.06726553
 ,-0.21215418,-0.08802171,0.00020808,-0.00055588,-0.00020077,-0.0004882
 1,0.00012328,0.00034488,0.00038960,0.00170112,0.00040699,-0.00035857,0
 .00086359,0.00004674,-0.00833597,-0.02128399,-0.01090446,0.07451798,0.
 22802927,0.00026584,0.00126980,0.00035633,-0.03773698,-0.08771064,-0.0
 9400893,-0.00931173,-0.02573506,-0.01573661,-0.00025170,0.00037993,0.0
 0044599,0.00054143,0.00003160,0.00092071,-0.00012196,-0.00025034,-0.00
 011454,0.00602514,0.01338123,0.00755339,0.03847778,0.09800494,0.103897
 95,0.00120981,0.00122521,0.00019880,0.00287100,0.01031026,0.00509638,-
 0.07022599,-0.06418243,-0.03568862,0.00010028,-0.00013535,-0.00020998,
 0.00007047,-0.00043308,-0.00016357,-0.00003625,0.00001516,0.00002320,0
 .00015731,-0.00022926,-0.00064205,-0.00018156,0.00040424,0.00260231,0.
 07227370,-0.00018868,0.00012885,0.00032664,0.00008025,-0.00056401,-0.0
 0043377,-0.06407868,-0.21726149,-0.09363765,0.00024560,0.00024897,0.00
 012753,0.00066996,0.00016759,-0.00022135,-0.00004483,-0.00005143,-0.00
 002987,0.00031074,0.00087003,-0.00031451,0.00005522,0.00170505,0.00007
 106,0.07112359,0.23447778,-0.00153709,-0.00018849,0.00125244,-0.009651
 17,-0.02631811,-0.01541812,-0.03550252,-0.09361794,-0.09656912,-0.0001
 7837,0.00043132,0.00019474,0.00095935,0.00052391,0.00034252,0.00017889
 ,0.00006433,0.00003337,-0.00058678,0.00031351,0.00111148,0.00286397,0.
 00017929,-0.00560595,0.03761206,0.10440645,0.10725966,0.00083858,0.000
 14400,0.00335922,-0.00964598,-0.00005328,-0.00124297,-0.29538750,-0.00
 012071,-0.00280987,-0.00086558,0.00000020,0.00000478,0.00032604,0.0000
 3127,-0.00013723,0.00032604,-0.00004290,-0.00013405,0.00050572,-0.0004
 6133,0.00020942,0.00050572,0.00047756,0.00016917,-0.00894444,0.0002961
 8,-0.00040442,0.32128593,0.00002104,0.00031960,-0.00028070,0.00134857,
 -0.00156643,0.00012783,-0.00014325,-0.04576492,0.00003483,0.00009232,0
 .00056705,-0.00002867,0.00044577,0.00023766,0.00001470,-0.00045330,0.0
 0021142,-0.00003455,-0.00034677,0.00010187,-0.00012962,0.00030222,0.00
 008783,0.00022240,-0.02707114,0.00054409,0.00028738,0.00005869,0.04485
 261,0.00049065,-0.00028069,-0.00621665,0.03146051,0.00012783,0.0014100
 7,-0.00333574,0.00003484,-0.04495295,0.00215371,-0.00002867,-0.0001005
 2,-0.00010706,0.00027100,-0.00001970,-0.00006852,-0.00029085,0.0000065
 4,-0.00050568,0.00038588,0.00116798,-0.00053350,-0.00029311,0.00118202
 ,-0.01432696,0.00118525,-0.00072799,0.00136357,0.00017143,0.04884432,0
 .00120981,-0.00120371,0.00030292,0.00287099,-0.00983632,0.00595997,-0.
 07022595,0.06089276,-0.04104987,0.00010028,0.00011688,-0.00022079,-0.0
 0003625,-0.00001312,0.00002441,0.00007047,0.00041750,-0.00020003,-0.00
 018156,-0.00018007,0.00262736,0.00015731,0.00017347,-0.00065931,0.0027
 0567,-0.00846935,0.00624608,-0.00894453,0.02574585,-0.01659098,0.07227
 374,0.00005646,0.00012530,-0.00022983,-0.00090584,0.00160806,-0.001028
 57,0.06080531,-0.20041191,0.10255614,-0.00025997,0.00020093,-0.0001280
 6,0.00005997,-0.00005374,0.00003735,-0.00058541,0.00014307,0.00023848,
 0.00019006,0.00163017,-0.00069256,-0.00035981,0.00087188,0.00033509,0.
 00897280,-0.02026543,0.01391837,-0.00032968,0.00040922,-0.00128290,-0.
 06764390,0.21574245,-0.00154761,0.00028530,0.00125600,-0.00960891,0.02
 485575,-0.01759020,-0.04085556,0.10253644,-0.11341804,-0.00015670,-0.0
 0043185,0.00024279,0.00017440,-0.00005684,0.00003568,0.00101316,-0.000
 50678,0.00036703,0.00285819,-0.00080078,-0.00553107,-0.00055803,-0.000
 29293,0.00110963,0.00549843,-0.01147979,0.00812697,-0.00037761,-0.0003
 8502,-0.00059312,0.04356025,-0.11372350,0.12599433\\-0.00010541,-0.000
 00870,-0.00019939,0.00026769,0.00001643,0.00037787,-0.00015323,-0.0000
 0743,-0.00016549,0.00000198,0.00000048,0.00001048,-0.00002136,-0.00003
 571,0.00004137,-0.00002141,0.00003921,0.00003813,-0.00003343,-0.000038
 45,-0.00004564,-0.00003348,0.00003422,-0.00004881,0.00004466,-0.000037
 67,-0.00000525,0.00000928,0.00000033,0.00000531,0.00004470,0.00003727,
 -0.00000858\\\@


 THE VALUE OF PHILOSOPHY IS, IN FACT, TO BE SOUGHT LARGELY IN ITS
 VERY UNCERTAINTY.  THE MAN WHO HAS NO TINCTURE OF PHILOSOPHY GOES
 THROUGH LIFE IMPRISONED IN THE PREJUDICES DERIVED FROM COMMON SENSE,
 FROM THE HABITUAL BELIEFS OF HIS AGE OR HIS NATION, AND FROM
 CONVICTIONS WHICH HAVE GROWN UP IN HIS MIND WITHOUT THE CO-OPERATION
 OR CONSENT OF HIS DELIBERATE REASON.  TO SUCH A MAN THE WORLD TENDS
 TO BE DEFINITE, FINITE, OBVIOUS; COMMON OBJECTS ROUSE NO QUESTIONS,
 AND UNFAMILIAR POSSIBILITIES ARE CONTEMPTUOUSLY REJECTED.

                             -- BERTRAND RUSSELL
 Job cpu time:  0 days  0 hours  1 minutes 23.5 seconds.
 File lengths (MBytes):  RWF=     12 Int=      0 D2E=      0 Chk=      2 Scr=      1
 Normal termination of Gaussian 09 at Wed Jul 10 16:52:22 2019.
