 Entering Gaussian System, Link 0=g09
 Initial command:
 /opt/g09/l1.exe /opt/g09/Gau-29052.inp -scrdir=/opt/g09/
 Entering Link 1 = /opt/g09/l1.exe PID=     29054.
  
 Copyright (c) 1988,1990,1992,1993,1995,1998,2003,2009,2011,
            Gaussian, Inc.  All Rights Reserved.
  
 This is part of the Gaussian(R) 09 program.  It is based on
 the Gaussian(R) 03 system (copyright 2003, Gaussian, Inc.),
 the Gaussian(R) 98 system (copyright 1998, Gaussian, Inc.),
 the Gaussian(R) 94 system (copyright 1995, Gaussian, Inc.),
 the Gaussian 92(TM) system (copyright 1992, Gaussian, Inc.),
 the Gaussian 90(TM) system (copyright 1990, Gaussian, Inc.),
 the Gaussian 88(TM) system (copyright 1988, Gaussian, Inc.),
 the Gaussian 86(TM) system (copyright 1986, Carnegie Mellon
 University), and the Gaussian 82(TM) system (copyright 1983,
 Carnegie Mellon University). Gaussian is a federally registered
 trademark of Gaussian, Inc.
  
 This software contains proprietary and confidential information,
 including trade secrets, belonging to Gaussian, Inc.
  
 This software is provided under written license and may be
 used, copied, transmitted, or stored only in accord with that
 written license.
  
 The following legend is applicable only to US Government
 contracts under FAR:
  
                    RESTRICTED RIGHTS LEGEND
  
 Use, reproduction and disclosure by the US Government is
 subject to restrictions as set forth in subparagraphs (a)
 and (c) of the Commercial Computer Software - Restricted
 Rights clause in FAR 52.227-19.
  
 Gaussian, Inc.
 340 Quinnipiac St., Bldg. 40, Wallingford CT 06492
  
  
 ---------------------------------------------------------------
 Warning -- This program may not be used in any manner that
 competes with the business of Gaussian, Inc. or will provide
 assistance to any competitor of Gaussian, Inc.  The licensee
 of this program is prohibited from giving any competitor of
 Gaussian, Inc. access to this program.  By using this program,
 the user acknowledges that Gaussian, Inc. is engaged in the
 business of creating and licensing software in the field of
 computational chemistry and represents and warrants to the
 licensee that it is not a competitor of Gaussian, Inc. and that
 it will not use this program in any manner prohibited above.
 ---------------------------------------------------------------
  

 Cite this work as:
 Gaussian 09, Revision C.01,
 M. J. Frisch, G. W. Trucks, H. B. Schlegel, G. E. Scuseria, 
 M. A. Robb, J. R. Cheeseman, G. Scalmani, V. Barone, B. Mennucci, 
 G. A. Petersson, H. Nakatsuji, M. Caricato, X. Li, H. P. Hratchian, 
 A. F. Izmaylov, J. Bloino, G. Zheng, J. L. Sonnenberg, M. Hada, 
 M. Ehara, K. Toyota, R. Fukuda, J. Hasegawa, M. Ishida, T. Nakajima, 
 Y. Honda, O. Kitao, H. Nakai, T. Vreven, J. A. Montgomery, Jr., 
 J. E. Peralta, F. Ogliaro, M. Bearpark, J. J. Heyd, E. Brothers, 
 K. N. Kudin, V. N. Staroverov, T. Keith, R. Kobayashi, J. Normand, 
 K. Raghavachari, A. Rendell, J. C. Burant, S. S. Iyengar, J. Tomasi, 
 M. Cossi, N. Rega, J. M. Millam, M. Klene, J. E. Knox, J. B. Cross, 
 V. Bakken, C. Adamo, J. Jaramillo, R. Gomperts, R. E. Stratmann, 
 O. Yazyev, A. J. Austin, R. Cammi, C. Pomelli, J. W. Ochterski, 
 R. L. Martin, K. Morokuma, V. G. Zakrzewski, G. A. Voth, 
 P. Salvador, J. J. Dannenberg, S. Dapprich, A. D. Daniels, 
 O. Farkas, J. B. Foresman, J. V. Ortiz, J. Cioslowski, 
 and D. J. Fox, Gaussian, Inc., Wallingford CT, 2010.
 
 ******************************************
 Gaussian 09:  EM64L-G09RevC.01 23-Sep-2011
                21-Aug-2019 
 ******************************************
 %nprocs=8
 Will use up to    8 processors via shared memory.
 %mem=16GB
 -------------------------
 #opt freq blyp/6-31g(d,p)
 -------------------------
 1/14=-1,18=20,19=15,26=3,38=1/1,3;
 2/9=110,12=2,17=6,18=5,40=1/2;
 3/5=1,6=6,7=101,11=2,16=1,25=1,30=1,71=1,74=402/1,2,3;
 4//1;
 5/5=2,38=5/2;
 6/7=2,8=2,9=2,10=2,28=1/1;
 7//1,2,3,16;
 1/14=-1,18=20,19=15/3(2);
 2/9=110/2;
 99//99;
 2/9=110/2;
 3/5=1,6=6,7=101,11=2,16=1,25=1,30=1,71=1,74=402/1,2,3;
 4/5=5,16=3/1;
 5/5=2,38=5/2;
 7//1,2,3,16;
 1/14=-1,18=20,19=15/3(-5);
 2/9=110/2;
 6/7=2,8=2,9=2,10=2,19=2,28=1/1;
 99/9=1/99;
 -----------------------------------------------
 molecule_/home/mateus/github/db_singletoxygen 2
 -----------------------------------------------
 Charge =  0 Multiplicity = 1
 Symbolic Z-Matrix:
 C                     1.07649   0.0842    0.0487 
 C                     2.57264   0.03617   0.0486 
 C                     3.2175   -1.13415   0.04968 
 C                     4.66383  -1.19166   0.04942 
 C                     5.41643  -0.00754   0.04869 
 C                     6.82979  -0.08265   0.04938 
 C                     7.39405  -1.35836   0.04985 
 C                     6.67272  -2.54874   0.05037 
 C                     5.28571  -2.44054   0.05047 
 O                     8.74882  -1.29151   0.05015 
 C                     9.07728   0.01979   0.05049 
 C                     7.94813   0.81725   0.0504 
 C                     7.94646   2.2978    0.05165 
 O                     4.7207    1.23666   0.0478 
 C                     3.32279   1.3169    0.04762 
 O                     2.73716   2.3972    0.04699 
 H                     0.6453   -0.92543   0.04933 
 H                     0.70219   0.59349  -0.844 
 H                     0.70241   0.59457   0.94088 
 H                     2.67245  -2.0727    0.05101 
 H                     7.16909  -3.5108    0.05126 
 H                     4.68859  -3.3495    0.05163 
 H                     10.13889   0.22838   0.05107 
 H                     8.97178   2.68766   0.05206 
 H                     7.44356   2.68149   0.94349 
 H                     7.44354   2.683    -0.83948 
 

 GradGradGradGradGradGradGradGradGradGradGradGradGradGradGradGradGradGrad
 Berny optimization.
 Initialization pass.
                           ----------------------------
                           !    Initial Parameters    !
                           ! (Angstroms and Degrees)  !
 --------------------------                            --------------------------
 ! Name  Definition              Value          Derivative Info.                !
 --------------------------------------------------------------------------------
 ! R1    R(1,2)                  1.4969         estimate D2E/DX2                !
 ! R2    R(1,17)                 1.0979         estimate D2E/DX2                !
 ! R3    R(1,18)                 1.0938         estimate D2E/DX2                !
 ! R4    R(1,19)                 1.0938         estimate D2E/DX2                !
 ! R5    R(2,3)                  1.3362         estimate D2E/DX2                !
 ! R6    R(2,15)                 1.4842         estimate D2E/DX2                !
 ! R7    R(3,4)                  1.4475         estimate D2E/DX2                !
 ! R8    R(3,20)                 1.0853         estimate D2E/DX2                !
 ! R9    R(4,5)                  1.403          estimate D2E/DX2                !
 ! R10   R(4,9)                  1.3951         estimate D2E/DX2                !
 ! R11   R(5,6)                  1.4154         estimate D2E/DX2                !
 ! R12   R(5,14)                 1.4255         estimate D2E/DX2                !
 ! R13   R(6,7)                  1.3949         estimate D2E/DX2                !
 ! R14   R(6,12)                 1.4354         estimate D2E/DX2                !
 ! R15   R(7,8)                  1.3919         estimate D2E/DX2                !
 ! R16   R(7,10)                 1.3564         estimate D2E/DX2                !
 ! R17   R(8,9)                  1.3912         estimate D2E/DX2                !
 ! R18   R(8,21)                 1.0826         estimate D2E/DX2                !
 ! R19   R(9,22)                 1.0875         estimate D2E/DX2                !
 ! R20   R(10,11)                1.3518         estimate D2E/DX2                !
 ! R21   R(11,12)                1.3824         estimate D2E/DX2                !
 ! R22   R(11,23)                1.0819         estimate D2E/DX2                !
 ! R23   R(12,13)                1.4806         estimate D2E/DX2                !
 ! R24   R(13,24)                1.0969         estimate D2E/DX2                !
 ! R25   R(13,25)                1.0934         estimate D2E/DX2                !
 ! R26   R(13,26)                1.0934         estimate D2E/DX2                !
 ! R27   R(14,15)                1.4002         estimate D2E/DX2                !
 ! R28   R(15,16)                1.2288         estimate D2E/DX2                !
 ! A1    A(2,1,17)             111.2875         estimate D2E/DX2                !
 ! A2    A(2,1,18)             110.9107         estimate D2E/DX2                !
 ! A3    A(2,1,19)             110.9069         estimate D2E/DX2                !
 ! A4    A(17,1,18)            107.1135         estimate D2E/DX2                !
 ! A5    A(17,1,19)            107.1165         estimate D2E/DX2                !
 ! A6    A(18,1,19)            109.3548         estimate D2E/DX2                !
 ! A7    A(1,2,3)              120.694          estimate D2E/DX2                !
 ! A8    A(1,2,15)             118.5197         estimate D2E/DX2                !
 ! A9    A(3,2,15)             120.7864         estimate D2E/DX2                !
 ! A10   A(2,3,4)              121.1323         estimate D2E/DX2                !
 ! A11   A(2,3,20)             120.9995         estimate D2E/DX2                !
 ! A12   A(4,3,20)             117.8682         estimate D2E/DX2                !
 ! A13   A(3,4,5)              120.1621         estimate D2E/DX2                !
 ! A14   A(3,4,9)              118.748          estimate D2E/DX2                !
 ! A15   A(5,4,9)              121.0899         estimate D2E/DX2                !
 ! A16   A(4,5,6)              119.3971         estimate D2E/DX2                !
 ! A17   A(4,5,14)             118.3479         estimate D2E/DX2                !
 ! A18   A(6,5,14)             122.255          estimate D2E/DX2                !
 ! A19   A(5,6,7)              116.9023         estimate D2E/DX2                !
 ! A20   A(5,6,12)             138.1352         estimate D2E/DX2                !
 ! A21   A(7,6,12)             104.9624         estimate D2E/DX2                !
 ! A22   A(6,7,8)              124.9252         estimate D2E/DX2                !
 ! A23   A(6,7,10)             111.0354         estimate D2E/DX2                !
 ! A24   A(8,7,10)             124.0394         estimate D2E/DX2                !
 ! A25   A(7,8,9)              116.7539         estimate D2E/DX2                !
 ! A26   A(7,8,21)             121.4943         estimate D2E/DX2                !
 ! A27   A(9,8,21)             121.7518         estimate D2E/DX2                !
 ! A28   A(4,9,8)              120.9316         estimate D2E/DX2                !
 ! A29   A(4,9,22)             120.227          estimate D2E/DX2                !
 ! A30   A(8,9,22)             118.8414         estimate D2E/DX2                !
 ! A31   A(7,10,11)            106.8873         estimate D2E/DX2                !
 ! A32   A(10,11,12)           111.1692         estimate D2E/DX2                !
 ! A33   A(10,11,23)           115.1785         estimate D2E/DX2                !
 ! A34   A(12,11,23)           133.6523         estimate D2E/DX2                !
 ! A35   A(6,12,11)            105.9457         estimate D2E/DX2                !
 ! A36   A(6,12,13)            128.7581         estimate D2E/DX2                !
 ! A37   A(11,12,13)           125.2962         estimate D2E/DX2                !
 ! A38   A(12,13,24)           110.7538         estimate D2E/DX2                !
 ! A39   A(12,13,25)           110.6173         estimate D2E/DX2                !
 ! A40   A(12,13,26)           110.6183         estimate D2E/DX2                !
 ! A41   A(24,13,25)           107.7517         estimate D2E/DX2                !
 ! A42   A(24,13,26)           107.7605         estimate D2E/DX2                !
 ! A43   A(25,13,26)           109.2448         estimate D2E/DX2                !
 ! A44   A(5,14,15)            122.4982         estimate D2E/DX2                !
 ! A45   A(2,15,14)            117.0732         estimate D2E/DX2                !
 ! A46   A(2,15,16)            121.1795         estimate D2E/DX2                !
 ! A47   A(14,15,16)           121.7473         estimate D2E/DX2                !
 ! D1    D(17,1,2,3)            -0.0223         estimate D2E/DX2                !
 ! D2    D(17,1,2,15)          179.9928         estimate D2E/DX2                !
 ! D3    D(18,1,2,3)          -119.1626         estimate D2E/DX2                !
 ! D4    D(18,1,2,15)           60.8525         estimate D2E/DX2                !
 ! D5    D(19,1,2,3)           119.1192         estimate D2E/DX2                !
 ! D6    D(19,1,2,15)          -60.8656         estimate D2E/DX2                !
 ! D7    D(1,2,3,4)            179.9919         estimate D2E/DX2                !
 ! D8    D(1,2,3,20)            -0.0221         estimate D2E/DX2                !
 ! D9    D(15,2,3,4)            -0.0235         estimate D2E/DX2                !
 ! D10   D(15,2,3,20)          179.9624         estimate D2E/DX2                !
 ! D11   D(1,2,15,14)          179.9886         estimate D2E/DX2                !
 ! D12   D(1,2,15,16)            0.0048         estimate D2E/DX2                !
 ! D13   D(3,2,15,14)            0.0038         estimate D2E/DX2                !
 ! D14   D(3,2,15,16)         -179.9801         estimate D2E/DX2                !
 ! D15   D(2,3,4,5)              0.0318         estimate D2E/DX2                !
 ! D16   D(2,3,4,9)           -179.9945         estimate D2E/DX2                !
 ! D17   D(20,3,4,5)          -179.9545         estimate D2E/DX2                !
 ! D18   D(20,3,4,9)             0.0192         estimate D2E/DX2                !
 ! D19   D(3,4,5,6)            179.9566         estimate D2E/DX2                !
 ! D20   D(3,4,5,14)            -0.0191         estimate D2E/DX2                !
 ! D21   D(9,4,5,6)             -0.0165         estimate D2E/DX2                !
 ! D22   D(9,4,5,14)          -179.9922         estimate D2E/DX2                !
 ! D23   D(3,4,9,8)           -179.9952         estimate D2E/DX2                !
 ! D24   D(3,4,9,22)            -0.0102         estimate D2E/DX2                !
 ! D25   D(5,4,9,8)             -0.0218         estimate D2E/DX2                !
 ! D26   D(5,4,9,22)           179.9632         estimate D2E/DX2                !
 ! D27   D(4,5,6,7)              0.0425         estimate D2E/DX2                !
 ! D28   D(4,5,6,12)          -179.9202         estimate D2E/DX2                !
 ! D29   D(14,5,6,7)          -179.9828         estimate D2E/DX2                !
 ! D30   D(14,5,6,12)            0.0545         estimate D2E/DX2                !
 ! D31   D(4,5,14,15)           -0.0005         estimate D2E/DX2                !
 ! D32   D(6,5,14,15)         -179.9755         estimate D2E/DX2                !
 ! D33   D(5,6,7,8)             -0.0342         estimate D2E/DX2                !
 ! D34   D(5,6,7,10)           179.9846         estimate D2E/DX2                !
 ! D35   D(12,6,7,8)           179.9401         estimate D2E/DX2                !
 ! D36   D(12,6,7,10)           -0.0411         estimate D2E/DX2                !
 ! D37   D(5,6,12,11)         -179.9958         estimate D2E/DX2                !
 ! D38   D(5,6,12,13)            0.0258         estimate D2E/DX2                !
 ! D39   D(7,6,12,11)            0.0386         estimate D2E/DX2                !
 ! D40   D(7,6,12,13)         -179.9398         estimate D2E/DX2                !
 ! D41   D(6,7,8,9)             -0.0024         estimate D2E/DX2                !
 ! D42   D(6,7,8,21)          -179.9665         estimate D2E/DX2                !
 ! D43   D(10,7,8,9)           179.9764         estimate D2E/DX2                !
 ! D44   D(10,7,8,21)            0.0124         estimate D2E/DX2                !
 ! D45   D(6,7,10,11)            0.027          estimate D2E/DX2                !
 ! D46   D(8,7,10,11)         -179.9544         estimate D2E/DX2                !
 ! D47   D(7,8,9,4)              0.0308         estimate D2E/DX2                !
 ! D48   D(7,8,9,22)          -179.9544         estimate D2E/DX2                !
 ! D49   D(21,8,9,4)           179.9948         estimate D2E/DX2                !
 ! D50   D(21,8,9,22)            0.0096         estimate D2E/DX2                !
 ! D51   D(7,10,11,12)          -0.0007         estimate D2E/DX2                !
 ! D52   D(7,10,11,23)         179.9817         estimate D2E/DX2                !
 ! D53   D(10,11,12,6)          -0.0244         estimate D2E/DX2                !
 ! D54   D(10,11,12,13)        179.955          estimate D2E/DX2                !
 ! D55   D(23,11,12,6)         179.9976         estimate D2E/DX2                !
 ! D56   D(23,11,12,13)         -0.023          estimate D2E/DX2                !
 ! D57   D(6,12,13,24)        -179.9912         estimate D2E/DX2                !
 ! D58   D(6,12,13,25)          60.6073         estimate D2E/DX2                !
 ! D59   D(6,12,13,26)         -60.578          estimate D2E/DX2                !
 ! D60   D(11,12,13,24)          0.0342         estimate D2E/DX2                !
 ! D61   D(11,12,13,25)       -119.3672         estimate D2E/DX2                !
 ! D62   D(11,12,13,26)        119.4474         estimate D2E/DX2                !
 ! D63   D(5,14,15,2)            0.0085         estimate D2E/DX2                !
 ! D64   D(5,14,15,16)         179.9923         estimate D2E/DX2                !
 --------------------------------------------------------------------------------
 Trust Radius=3.00D-01 FncErr=1.00D-07 GrdErr=1.00D-06
 Number of steps in this run=    149 maximum allowed number of steps=    156.
 GradGradGradGradGradGradGradGradGradGradGradGradGradGradGradGradGradGrad

                          Input orientation:                          
 ---------------------------------------------------------------------
 Center     Atomic      Atomic             Coordinates (Angstroms)
 Number     Number       Type             X           Y           Z
 ---------------------------------------------------------------------
      1          6           0        1.076490    0.084200    0.048700
      2          6           0        2.572640    0.036170    0.048600
      3          6           0        3.217500   -1.134150    0.049680
      4          6           0        4.663830   -1.191660    0.049420
      5          6           0        5.416430   -0.007540    0.048690
      6          6           0        6.829790   -0.082650    0.049380
      7          6           0        7.394050   -1.358360    0.049850
      8          6           0        6.672720   -2.548740    0.050370
      9          6           0        5.285710   -2.440540    0.050470
     10          8           0        8.748820   -1.291510    0.050150
     11          6           0        9.077280    0.019790    0.050490
     12          6           0        7.948130    0.817250    0.050400
     13          6           0        7.946460    2.297800    0.051650
     14          8           0        4.720700    1.236660    0.047800
     15          6           0        3.322790    1.316900    0.047620
     16          8           0        2.737160    2.397200    0.046990
     17          1           0        0.645300   -0.925430    0.049330
     18          1           0        0.702190    0.593490   -0.844000
     19          1           0        0.702410    0.594570    0.940880
     20          1           0        2.672450   -2.072700    0.051010
     21          1           0        7.169090   -3.510800    0.051260
     22          1           0        4.688590   -3.349500    0.051630
     23          1           0       10.138890    0.228380    0.051070
     24          1           0        8.971780    2.687660    0.052060
     25          1           0        7.443560    2.681490    0.943490
     26          1           0        7.443540    2.683000   -0.839480
 ---------------------------------------------------------------------
                    Distance matrix (angstroms):
                    1          2          3          4          5
     1  C    0.000000
     2  C    1.496921   0.000000
     3  C    2.463392   1.336224   0.000000
     4  C    3.807470   2.425004   1.447473   0.000000
     5  C    4.340910   2.844126   2.470738   1.403049   0.000000
     6  C    5.755719   4.258808   3.762219   2.433369   1.415355
     7  C    6.480166   5.019035   4.182564   2.735304   2.394931
     8  C    6.184672   4.846898   3.733579   2.424316   2.834778
     9  C    4.908345   3.673533   2.446252   1.395148   2.436510
    10  O    7.794692   6.317273   5.533558   4.086210   3.571191
    11  C    8.001049   6.504661   5.972319   4.576697   3.660952
    12  C    6.910630   5.431941   5.117306   3.849980   2.662665
    13  C    7.217792   5.830345   5.843060   4.790824   3.422814
    14  O    3.822098   2.460760   2.807197   2.428986   1.425509
    15  C    2.562306   1.484249   2.453311   2.844515   2.477392
    16  O    2.847419   2.366756   3.563870   4.073325   3.600176
    17  H    1.097852   2.153907   2.580654   4.027339   4.858622
    18  H    1.093796   2.146142   3.179652   4.436164   4.835514
    19  H    1.093800   2.146097   3.179369   4.436008   4.835341
    20  H    2.683153   2.111232   1.085337   2.177574   3.434286
    21  H    7.074165   5.805890   4.611240   3.413904   3.917225
    22  H    4.983731   3.992495   2.659302   2.157983   3.420301
    23  H    9.063547   7.568691   7.054228   5.656218   4.728350
    24  H    8.313460   6.926717   6.907820   5.797203   4.461460
    25  H    6.934417   5.614660   5.763470   4.850521   3.484366
    26  H    6.934115   5.614273   5.763736   4.850765   3.483824
                    6          7          8          9         10
     6  C    0.000000
     7  C    1.394929   0.000000
     8  C    2.471087   1.391877   0.000000
     9  C    2.818480   2.369855   1.391224   0.000000
    10  O    2.268043   1.356418   2.427101   3.648753   0.000000
    11  C    2.249824   2.175445   3.518417   4.519870   1.351811
    12  C    1.435446   2.245058   3.599522   4.207336   2.255654
    13  C    2.629353   3.697657   5.011124   5.434285   3.677898
    14  O    2.487738   3.725712   4.259066   3.720355   4.755775
    15  C    3.775949   4.871568   5.115194   4.239271   6.020433
    16  O    4.785319   5.982547   6.320678   5.467984   7.053130
    17  H    6.241650   6.762622   6.242189   4.881492   8.111785
    18  H    6.229187   7.027779   6.805934   5.569028   8.312700
    19  H    6.228819   7.027511   6.805733   5.568785   8.312365
    20  H    4.609097   4.775331   4.028495   2.639021   6.126380
    21  H    3.444901   2.164164   1.082563   2.166236   2.724114
    22  H    3.906028   3.359190   2.139624   1.087549   4.552010
    23  H    3.323686   3.170472   4.441478   5.538636   2.059699
    24  H    3.501820   4.342754   5.718878   6.315501   3.985412
    25  H    2.969279   4.137805   5.361638   5.629298   4.276270
    26  H    2.969104   4.138351   5.362565   5.630178   4.276906
                   11         12         13         14         15
    11  C    0.000000
    12  C    1.382361   0.000000
    13  C    2.543243   1.480551   0.000000
    14  O    4.523336   3.254568   3.395815   0.000000
    15  C    5.898869   4.652250   4.726574   1.400211   0.000000
    16  O    6.771205   5.445224   5.210250   2.298105   1.228825
    17  H    8.484794   7.507880   7.980987   4.613407   3.492420
    18  H    8.442238   7.304359   7.495753   4.166221   2.861093
    19  H    8.441659   7.303629   7.494530   4.166116   2.861130
    20  H    6.737979   6.015365   6.849559   3.891941   3.451426
    21  H    4.013260   4.397604   5.860387   5.341629   6.172578
    22  H    5.532876   5.290218   6.519641   4.586274   4.862172
    23  H    1.081908   2.268523   3.014838   5.511209   6.902471
    24  H    2.669956   2.132204   1.096938   4.491893   5.812924
    25  H    3.248251   2.127814   1.093392   3.209947   4.432317
    26  H    3.248667   2.127797   1.093353   3.208274   4.430999
                   16         17         18         19         20
    16  O    0.000000
    17  H    3.926290   0.000000
    18  H    2.861527   1.763064   0.000000
    19  H    2.861594   1.763100   1.784880   0.000000
    20  H    4.470370   2.329285   3.433881   3.433257   0.000000
    21  H    7.385559   7.017405   7.711516   7.711254   4.721007
    22  H    6.068992   4.714267   5.678090   5.677683   2.386428
    23  H    7.712937   9.563448   9.486083   9.485410   7.812982
    24  H    6.241384   9.076602   8.577563   8.576334   7.895732
    25  H    4.799451   7.747628   7.280174   7.056794   6.794287
    26  H    4.797658   7.747698   7.057753   7.278328   6.795068
                   21         22         23         24         25
    21  H    0.000000
    22  H    2.485739   0.000000
    23  H    4.775058   6.519739   0.000000
    24  H    6.455277   7.402231   2.722169   0.000000
    25  H    6.262257   6.690151   3.752195   1.769221   0.000000
    26  H    6.263537   6.691404   3.752752   1.769289   1.782971
                   26
    26  H    0.000000
 Stoichiometry    C13H10O3
 Framework group  C1[X(C13H10O3)]
 Deg. of freedom    72
 Full point group                 C1      NOp   1
 Largest Abelian subgroup         C1      NOp   1
 Largest concise Abelian subgroup C1      NOp   1
                         Standard orientation:                         
 ---------------------------------------------------------------------
 Center     Atomic      Atomic             Coordinates (Angstroms)
 Number     Number       Type             X           Y           Z
 ---------------------------------------------------------------------
      1          6           0       -4.341639   -0.414724    0.000780
      2          6           0       -2.851665   -0.270681    0.000154
      3          6           0       -2.062185   -1.348742    0.000740
      4          6           0       -0.620406   -1.220484   -0.000031
      5          6           0       -0.025709    0.050297   -0.000744
      6          6           0        1.385627    0.156877   -0.000557
      7          6           0        2.108673   -1.036032   -0.000579
      8          6           0        1.545791   -2.309014   -0.000088
      9          6           0        0.156349   -2.379401    0.000514
     10          8           0        3.443714   -0.796168   -0.000729
     11          6           0        3.601472    0.546406   -0.000196
     12          6           0        2.379462    1.192635    0.000288
     13          6           0        2.188128    2.660771    0.001884
     14          8           0       -0.875105    1.195112   -0.001104
     15          6           0       -2.271776    1.095599   -0.000785
     16          8           0       -2.990981    2.091970   -0.000962
     17          1           0       -4.639928   -1.471276    0.001323
     18          1           0       -4.778433    0.042583   -0.891673
     19          1           0       -4.777691    0.043348    0.893207
     20          1           0       -2.482502   -2.349386    0.002038
     21          1           0        2.161324   -3.199555    0.000407
     22          1           0       -0.319400   -3.357370    0.001667
     23          1           0        4.627611    0.889284    0.000068
     24          1           0        3.155052    3.178775    0.002032
     25          1           0        1.640547    2.976704    0.893986
     26          1           0        1.639672    2.978532   -0.888983
 ---------------------------------------------------------------------
 Rotational constants (GHZ):      1.0726474      0.3909123      0.2875465
 Standard basis: 6-31G(d,p) (6D, 7F)
 There are   290 symmetry adapted basis functions of A   symmetry.
 Integral buffers will be    131072 words long.
 Raffenetti 2 integral format.
 Two-electron integral symmetry is turned on.
   290 basis functions,   518 primitive gaussians,   290 cartesian basis functions
    56 alpha electrons       56 beta electrons
       nuclear repulsion energy      1035.3062542528 Hartrees.
 NAtoms=   26 NActive=   26 NUniq=   26 SFac= 1.00D+00 NAtFMM=   60 NAOKFM=F Big=F
 One-electron integrals computed using PRISM.
 NBasis=   290 RedAO= T  NBF=   290
 NBsUse=   290 1.00D-06 NBFU=   290
 Harris functional with IExCor=  402 diagonalized for initial guess.
 ExpMin= 1.61D-01 ExpMax= 5.48D+03 ExpMxC= 8.25D+02 IAcc=1 IRadAn=         1 AccDes= 0.00D+00
 HarFok:  IExCor=  402 AccDes= 0.00D+00 IRadAn=         1 IDoV= 1
 ScaDFX=  1.000000  1.000000  1.000000  1.000000
 FoFCou: FMM=F IPFlag=           0 FMFlag=      100000 FMFlg1=           0
         NFxFlg=           0 DoJE=T BraDBF=F KetDBF=T FulRan=T
         Omega=  0.000000  0.000000  1.000000  0.000000  0.000000 ICntrl=     500 IOpCl=  0
         NMat0=    1 NMatS0=    1 NMatT0=    0 NMatD0=    1 NMtDS0=    0 NMtDT0=    0
         I1Cent=           4 NGrid=           0.
 Petite list used in FoFCou.
 Initial guess orbital symmetries:
       Occupied  (A) (A) (A) (A) (A) (A) (A) (A) (A) (A) (A) (A)
                 (A) (A) (A) (A) (A) (A) (A) (A) (A) (A) (A) (A)
                 (A) (A) (A) (A) (A) (A) (A) (A) (A) (A) (A) (A)
                 (A) (A) (A) (A) (A) (A) (A) (A) (A) (A) (A) (A)
                 (A) (A) (A) (A) (A) (A) (A) (A)
       Virtual   (A) (A) (A) (A) (A) (A) (A) (A) (A) (A) (A) (A)
                 (A) (A) (A) (A) (A) (A) (A) (A) (A) (A) (A) (A)
                 (A) (A) (A) (A) (A) (A) (A) (A) (A) (A) (A) (A)
                 (A) (A) (A) (A) (A) (A) (A) (A) (A) (A) (A) (A)
                 (A) (A) (A) (A) (A) (A) (A) (A) (A) (A) (A) (A)
                 (A) (A) (A) (A) (A) (A) (A) (A) (A) (A) (A) (A)
                 (A) (A) (A) (A) (A) (A) (A) (A) (A) (A) (A) (A)
                 (A) (A) (A) (A) (A) (A) (A) (A) (A) (A) (A) (A)
                 (A) (A) (A) (A) (A) (A) (A) (A) (A) (A) (A) (A)
                 (A) (A) (A) (A) (A) (A) (A) (A) (A) (A) (A) (A)
                 (A) (A) (A) (A) (A) (A) (A) (A) (A) (A) (A) (A)
                 (A) (A) (A) (A) (A) (A) (A) (A) (A) (A) (A) (A)
                 (A) (A) (A) (A) (A) (A) (A) (A) (A) (A) (A) (A)
                 (A) (A) (A) (A) (A) (A) (A) (A) (A) (A) (A) (A)
                 (A) (A) (A) (A) (A) (A) (A) (A) (A) (A) (A) (A)
                 (A) (A) (A) (A) (A) (A) (A) (A) (A) (A) (A) (A)
                 (A) (A) (A) (A) (A) (A) (A) (A) (A) (A) (A) (A)
                 (A) (A) (A) (A) (A) (A) (A) (A) (A) (A) (A) (A)
                 (A) (A) (A) (A) (A) (A) (A) (A) (A) (A) (A) (A)
                 (A) (A) (A) (A) (A) (A)
 The electronic state of the initial guess is 1-A.
 Requested convergence on RMS density matrix=1.00D-08 within 128 cycles.
 Requested convergence on MAX density matrix=1.00D-06.
 Requested convergence on             energy=1.00D-06.
 No special actions if energy rises.
 Keep J ints in memory in canonical form, NReq=903046567.
 Integral accuracy reduced to 1.0D-05 until final iterations.
 EnCoef did     2 forward-backward iterations
 Initial convergence to 1.0D-05 achieved.  Increase integral accuracy.
 SCF Done:  E(RB-LYP) =  -726.842773937     A.U. after   18 cycles
             Convg  =    0.4001D-08             -V/T =  2.0089

 **********************************************************************

            Population analysis using the SCF density.

 **********************************************************************

 Orbital symmetries:
       Occupied  (A) (A) (A) (A) (A) (A) (A) (A) (A) (A) (A) (A)
                 (A) (A) (A) (A) (A) (A) (A) (A) (A) (A) (A) (A)
                 (A) (A) (A) (A) (A) (A) (A) (A) (A) (A) (A) (A)
                 (A) (A) (A) (A) (A) (A) (A) (A) (A) (A) (A) (A)
                 (A) (A) (A) (A) (A) (A) (A) (A)
       Virtual   (A) (A) (A) (A) (A) (A) (A) (A) (A) (A) (A) (A)
                 (A) (A) (A) (A) (A) (A) (A) (A) (A) (A) (A) (A)
                 (A) (A) (A) (A) (A) (A) (A) (A) (A) (A) (A) (A)
                 (A) (A) (A) (A) (A) (A) (A) (A) (A) (A) (A) (A)
                 (A) (A) (A) (A) (A) (A) (A) (A) (A) (A) (A) (A)
                 (A) (A) (A) (A) (A) (A) (A) (A) (A) (A) (A) (A)
                 (A) (A) (A) (A) (A) (A) (A) (A) (A) (A) (A) (A)
                 (A) (A) (A) (A) (A) (A) (A) (A) (A) (A) (A) (A)
                 (A) (A) (A) (A) (A) (A) (A) (A) (A) (A) (A) (A)
                 (A) (A) (A) (A) (A) (A) (A) (A) (A) (A) (A) (A)
                 (A) (A) (A) (A) (A) (A) (A) (A) (A) (A) (A) (A)
                 (A) (A) (A) (A) (A) (A) (A) (A) (A) (A) (A) (A)
                 (A) (A) (A) (A) (A) (A) (A) (A) (A) (A) (A) (A)
                 (A) (A) (A) (A) (A) (A) (A) (A) (A) (A) (A) (A)
                 (A) (A) (A) (A) (A) (A) (A) (A) (A) (A) (A) (A)
                 (A) (A) (A) (A) (A) (A) (A) (A) (A) (A) (A) (A)
                 (A) (A) (A) (A) (A) (A) (A) (A) (A) (A) (A) (A)
                 (A) (A) (A) (A) (A) (A) (A) (A) (A) (A) (A) (A)
                 (A) (A) (A) (A) (A) (A) (A) (A) (A) (A) (A) (A)
                 (A) (A) (A) (A) (A) (A)
 The electronic state is 1-A.
 Alpha  occ. eigenvalues --  -18.86866 -18.85656 -18.77491 -10.04288 -10.00552
 Alpha  occ. eigenvalues --   -9.98763  -9.98161  -9.94440  -9.94350  -9.94313
 Alpha  occ. eigenvalues --   -9.94218  -9.94030  -9.93854  -9.93790  -9.92538
 Alpha  occ. eigenvalues --   -9.92200  -1.02497  -0.98851  -0.91136  -0.78779
 Alpha  occ. eigenvalues --   -0.74814  -0.73079  -0.68800  -0.67266  -0.63133
 Alpha  occ. eigenvalues --   -0.62576  -0.57776  -0.56945  -0.53896  -0.52931
 Alpha  occ. eigenvalues --   -0.47559  -0.46529  -0.45160  -0.43117  -0.41486
 Alpha  occ. eigenvalues --   -0.40593  -0.39697  -0.38523  -0.37424  -0.36463
 Alpha  occ. eigenvalues --   -0.36368  -0.36110  -0.35628  -0.35291  -0.34556
 Alpha  occ. eigenvalues --   -0.33097  -0.32429  -0.31092  -0.30897  -0.28676
 Alpha  occ. eigenvalues --   -0.28526  -0.25773  -0.24094  -0.21111  -0.19643
 Alpha  occ. eigenvalues --   -0.18260
 Alpha virt. eigenvalues --   -0.06783  -0.04824  -0.01109   0.02238   0.06048
 Alpha virt. eigenvalues --    0.06288   0.07052   0.08478   0.10038   0.10648
 Alpha virt. eigenvalues --    0.11034   0.12566   0.13147   0.13429   0.14174
 Alpha virt. eigenvalues --    0.15910   0.16045   0.17071   0.18159   0.19630
 Alpha virt. eigenvalues --    0.20943   0.22404   0.25147   0.25641   0.27752
 Alpha virt. eigenvalues --    0.29362   0.31018   0.32187   0.34939   0.37075
 Alpha virt. eigenvalues --    0.40773   0.41881   0.42989   0.44417   0.45976
 Alpha virt. eigenvalues --    0.46573   0.47176   0.48646   0.49026   0.49433
 Alpha virt. eigenvalues --    0.50113   0.51035   0.52019   0.54295   0.54597
 Alpha virt. eigenvalues --    0.54711   0.54837   0.55807   0.56547   0.57298
 Alpha virt. eigenvalues --    0.57935   0.59480   0.60829   0.62352   0.62742
 Alpha virt. eigenvalues --    0.63167   0.64070   0.66346   0.68225   0.69148
 Alpha virt. eigenvalues --    0.70890   0.73395   0.73601   0.74286   0.74917
 Alpha virt. eigenvalues --    0.77388   0.77961   0.79276   0.79996   0.80906
 Alpha virt. eigenvalues --    0.82081   0.83260   0.84941   0.85638   0.86344
 Alpha virt. eigenvalues --    0.87773   0.88365   0.89831   0.91176   0.93284
 Alpha virt. eigenvalues --    0.93380   0.94689   0.95499   0.97528   1.00104
 Alpha virt. eigenvalues --    1.01486   1.03113   1.03544   1.07120   1.08441
 Alpha virt. eigenvalues --    1.12043   1.13152   1.15085   1.15152   1.17786
 Alpha virt. eigenvalues --    1.22057   1.22949   1.23052   1.24304   1.26589
 Alpha virt. eigenvalues --    1.28747   1.29314   1.30227   1.31788   1.33043
 Alpha virt. eigenvalues --    1.33634   1.36143   1.37485   1.39710   1.40686
 Alpha virt. eigenvalues --    1.43139   1.46110   1.49864   1.53708   1.54672
 Alpha virt. eigenvalues --    1.59149   1.60498   1.62977   1.63397   1.65356
 Alpha virt. eigenvalues --    1.67901   1.70433   1.71427   1.73133   1.74722
 Alpha virt. eigenvalues --    1.75490   1.75546   1.76181   1.77581   1.78202
 Alpha virt. eigenvalues --    1.79499   1.82126   1.83804   1.84229   1.84779
 Alpha virt. eigenvalues --    1.85905   1.87959   1.88482   1.90149   1.90299
 Alpha virt. eigenvalues --    1.94439   1.95662   1.96351   1.97810   1.97875
 Alpha virt. eigenvalues --    1.97966   2.00131   2.01154   2.02901   2.03408
 Alpha virt. eigenvalues --    2.04663   2.07759   2.08652   2.10831   2.12348
 Alpha virt. eigenvalues --    2.14362   2.16294   2.16753   2.18133   2.22013
 Alpha virt. eigenvalues --    2.24201   2.24382   2.26951   2.27404   2.28747
 Alpha virt. eigenvalues --    2.31421   2.32072   2.35137   2.36712   2.36953
 Alpha virt. eigenvalues --    2.38043   2.39709   2.42692   2.44838   2.46857
 Alpha virt. eigenvalues --    2.49020   2.49333   2.50591   2.51529   2.55226
 Alpha virt. eigenvalues --    2.56694   2.56707   2.57029   2.59681   2.60512
 Alpha virt. eigenvalues --    2.62201   2.62915   2.66074   2.66688   2.67911
 Alpha virt. eigenvalues --    2.70678   2.72000   2.75630   2.78197   2.79763
 Alpha virt. eigenvalues --    2.80801   2.81906   2.84554   2.90070   2.90947
 Alpha virt. eigenvalues --    2.95351   2.97994   2.99765   3.07905   3.09566
 Alpha virt. eigenvalues --    3.11067   3.12036   3.14938   3.22625   3.23035
 Alpha virt. eigenvalues --    3.28259   3.34605   3.34756   3.37119   3.38205
 Alpha virt. eigenvalues --    3.44184   3.52633   3.67575   3.91546   3.95755
 Alpha virt. eigenvalues --    4.01075   4.03803   4.09574   4.10513   4.16201
 Alpha virt. eigenvalues --    4.25130   4.29895   4.36343   4.44523   4.46144
 Alpha virt. eigenvalues --    4.54926   4.60290   4.65493   4.86042
          Condensed to atoms (all electrons):
              1          2          3          4          5          6
     1  C    4.990947   0.356919  -0.050772   0.006830   0.001196   0.000013
     2  C    0.356919   5.075045   0.484130   0.001087  -0.015273   0.001134
     3  C   -0.050772   0.484130   5.113964   0.365775  -0.058419   0.010879
     4  C    0.006830   0.001087   0.365775   4.863439   0.365242  -0.016063
     5  C    0.001196  -0.015273  -0.058419   0.365242   5.298819   0.271565
     6  C    0.000013   0.001134   0.010879  -0.016063   0.271565   5.107617
     7  C    0.000000  -0.000061   0.000229  -0.047809  -0.033833   0.367690
     8  C    0.000004  -0.000356   0.008685   0.012782  -0.074250  -0.036602
     9  C   -0.000345   0.009155  -0.057719   0.417575  -0.011069  -0.059111
    10  O    0.000000   0.000000  -0.000003  -0.000201   0.007452  -0.065457
    11  C    0.000000   0.000000  -0.000001  -0.000202   0.020190   0.046321
    12  C    0.000000   0.000015  -0.000111   0.007981  -0.121335   0.337185
    13  C    0.000000   0.000004   0.000007  -0.000127  -0.015998  -0.059204
    14  O    0.003660  -0.071168  -0.030209  -0.035327   0.204668  -0.055531
    15  C   -0.048601   0.305544  -0.022731  -0.025038  -0.012084  -0.001439
    16  O    0.003971  -0.102433   0.003593   0.000880  -0.001093  -0.000166
    17  H    0.356329  -0.029311  -0.005161   0.000196  -0.000028   0.000000
    18  H    0.366348  -0.022499  -0.000120  -0.000219   0.000002   0.000000
    19  H    0.366349  -0.022508  -0.000127  -0.000218   0.000002   0.000000
    20  H   -0.012357  -0.043372   0.354587  -0.047866   0.005731  -0.000126
    21  H    0.000000   0.000003  -0.000156   0.003630   0.001005   0.006218
    22  H   -0.000015   0.000491  -0.013020  -0.043275   0.006019   0.000481
    23  H    0.000000   0.000000   0.000000   0.000002  -0.000103   0.003795
    24  H    0.000000   0.000000   0.000000   0.000003   0.000131   0.004931
    25  H    0.000000   0.000001   0.000000   0.000033   0.001850  -0.004488
    26  H    0.000000   0.000001   0.000000   0.000033   0.001849  -0.004496
              7          8          9         10         11         12
     1  C    0.000000   0.000004  -0.000345   0.000000   0.000000   0.000000
     2  C   -0.000061  -0.000356   0.009155   0.000000   0.000000   0.000015
     3  C    0.000229   0.008685  -0.057719  -0.000003  -0.000001  -0.000111
     4  C   -0.047809   0.012782   0.417575  -0.000201  -0.000202   0.007981
     5  C   -0.033833  -0.074250  -0.011069   0.007452   0.020190  -0.121335
     6  C    0.367690  -0.036602  -0.059111  -0.065457   0.046321   0.337185
     7  C    4.867701   0.441803   0.007422   0.284843  -0.147614   0.008531
     8  C    0.441803   5.052263   0.435572  -0.058132   0.002188   0.015223
     9  C    0.007422   0.435572   5.092501   0.003303   0.000104  -0.000314
    10  O    0.284843  -0.058132   0.003303   8.045220   0.288333  -0.041558
    11  C   -0.147614   0.002188   0.000104   0.288333   4.992937   0.434210
    12  C    0.008531   0.015223  -0.000314  -0.041558   0.434210   5.026707
    13  C    0.012925  -0.000288  -0.000009   0.004362  -0.088580   0.388445
    14  O    0.002977  -0.000194   0.005028  -0.000008  -0.000054  -0.006556
    15  C    0.000065  -0.000047   0.001643   0.000000   0.000003  -0.000114
    16  O    0.000000   0.000000   0.000006   0.000000   0.000000  -0.000004
    17  H    0.000000   0.000000  -0.000006   0.000000   0.000000   0.000000
    18  H    0.000000   0.000000   0.000006   0.000000   0.000000   0.000000
    19  H    0.000000   0.000000   0.000006   0.000000   0.000000   0.000000
    20  H    0.000008   0.000318  -0.011785   0.000000   0.000000   0.000002
    21  H   -0.031752   0.343646  -0.037769  -0.001440   0.000097  -0.000347
    22  H    0.004208  -0.045306   0.360925  -0.000060   0.000001   0.000012
    23  H    0.003659  -0.000311   0.000006  -0.039992   0.376991  -0.041126
    24  H   -0.000186   0.000004   0.000000  -0.000001  -0.007237  -0.019830
    25  H   -0.000246   0.000004  -0.000003  -0.000050   0.001673  -0.022316
    26  H   -0.000245   0.000004  -0.000003  -0.000051   0.001683  -0.022290
             13         14         15         16         17         18
     1  C    0.000000   0.003660  -0.048601   0.003971   0.356329   0.366348
     2  C    0.000004  -0.071168   0.305544  -0.102433  -0.029311  -0.022499
     3  C    0.000007  -0.030209  -0.022731   0.003593  -0.005161  -0.000120
     4  C   -0.000127  -0.035327  -0.025038   0.000880   0.000196  -0.000219
     5  C   -0.015998   0.204668  -0.012084  -0.001093  -0.000028   0.000002
     6  C   -0.059204  -0.055531  -0.001439  -0.000166   0.000000   0.000000
     7  C    0.012925   0.002977   0.000065   0.000000   0.000000   0.000000
     8  C   -0.000288  -0.000194  -0.000047   0.000000   0.000000   0.000000
     9  C   -0.000009   0.005028   0.001643   0.000006  -0.000006   0.000006
    10  O    0.004362  -0.000008   0.000000   0.000000   0.000000   0.000000
    11  C   -0.088580  -0.000054   0.000003   0.000000   0.000000   0.000000
    12  C    0.388445  -0.006556  -0.000114  -0.000004   0.000000   0.000000
    13  C    5.018232   0.002975   0.000023   0.000000   0.000000   0.000000
    14  O    0.002975   8.353926   0.195371  -0.064956  -0.000031  -0.000003
    15  C    0.000023   0.195371   4.514180   0.575695   0.004823  -0.002845
    16  O    0.000000  -0.064956   0.575695   8.023487   0.000493   0.003172
    17  H    0.000000  -0.000031   0.004823   0.000493   0.640705  -0.031750
    18  H    0.000000  -0.000003  -0.002845   0.003172  -0.031750   0.594263
    19  H    0.000000  -0.000003  -0.002845   0.003170  -0.031744  -0.028956
    20  H    0.000000  -0.000368   0.004262  -0.000105   0.006497   0.000244
    21  H    0.000001   0.000002   0.000000   0.000000   0.000000   0.000000
    22  H    0.000000  -0.000046  -0.000032   0.000000   0.000000   0.000000
    23  H   -0.001462   0.000000   0.000000   0.000000   0.000000   0.000000
    24  H    0.357067   0.000051   0.000000   0.000000   0.000000   0.000000
    25  H    0.365597   0.000646   0.000025   0.000001   0.000000   0.000000
    26  H    0.365569   0.000655   0.000026   0.000001   0.000000   0.000000
             19         20         21         22         23         24
     1  C    0.366349  -0.012357   0.000000  -0.000015   0.000000   0.000000
     2  C   -0.022508  -0.043372   0.000003   0.000491   0.000000   0.000000
     3  C   -0.000127   0.354587  -0.000156  -0.013020   0.000000   0.000000
     4  C   -0.000218  -0.047866   0.003630  -0.043275   0.000002   0.000003
     5  C    0.000002   0.005731   0.001005   0.006019  -0.000103   0.000131
     6  C    0.000000  -0.000126   0.006218   0.000481   0.003795   0.004931
     7  C    0.000000   0.000008  -0.031752   0.004208   0.003659  -0.000186
     8  C    0.000000   0.000318   0.343646  -0.045306  -0.000311   0.000004
     9  C    0.000006  -0.011785  -0.037769   0.360925   0.000006   0.000000
    10  O    0.000000   0.000000  -0.001440  -0.000060  -0.039992  -0.000001
    11  C    0.000000   0.000000   0.000097   0.000001   0.376991  -0.007237
    12  C    0.000000   0.000002  -0.000347   0.000012  -0.041126  -0.019830
    13  C    0.000000   0.000000   0.000001   0.000000  -0.001462   0.357067
    14  O   -0.000003  -0.000368   0.000002  -0.000046   0.000000   0.000051
    15  C   -0.002845   0.004262   0.000000  -0.000032   0.000000   0.000000
    16  O    0.003170  -0.000105   0.000000   0.000000   0.000000   0.000000
    17  H   -0.031744   0.006497   0.000000   0.000000   0.000000   0.000000
    18  H   -0.028956   0.000244   0.000000   0.000000   0.000000   0.000000
    19  H    0.594275   0.000245   0.000000   0.000000   0.000000   0.000000
    20  H    0.000245   0.670771  -0.000010   0.006638   0.000000   0.000000
    21  H    0.000000  -0.000010   0.651851  -0.006733  -0.000003   0.000000
    22  H    0.000000   0.006638  -0.006733   0.665912   0.000000   0.000000
    23  H    0.000000   0.000000  -0.000003   0.000000   0.604092   0.003829
    24  H    0.000000   0.000000   0.000000   0.000000   0.003829   0.628663
    25  H    0.000000   0.000000   0.000000   0.000000  -0.000012  -0.030990
    26  H    0.000000   0.000000   0.000000   0.000000  -0.000011  -0.030964
             25         26
     1  C    0.000000   0.000000
     2  C    0.000001   0.000001
     3  C    0.000000   0.000000
     4  C    0.000033   0.000033
     5  C    0.001850   0.001849
     6  C   -0.004488  -0.004496
     7  C   -0.000246  -0.000245
     8  C    0.000004   0.000004
     9  C   -0.000003  -0.000003
    10  O   -0.000050  -0.000051
    11  C    0.001673   0.001683
    12  C   -0.022316  -0.022290
    13  C    0.365597   0.365569
    14  O    0.000646   0.000655
    15  C    0.000025   0.000026
    16  O    0.000001   0.000001
    17  H    0.000000   0.000000
    18  H    0.000000   0.000000
    19  H    0.000000   0.000000
    20  H    0.000000   0.000000
    21  H    0.000000   0.000000
    22  H    0.000000   0.000000
    23  H   -0.000012  -0.000011
    24  H   -0.030990  -0.030964
    25  H    0.598180  -0.032304
    26  H   -0.032304   0.598112
 Mulliken atomic charges:
              1
     1  C   -0.340473
     2  C    0.073452
     3  C   -0.103301
     4  C    0.170856
     5  C    0.157763
     6  C    0.144855
     7  C    0.259686
     8  C   -0.097010
     9  C   -0.155118
    10  O   -0.426560
    11  C    0.078960
    12  C    0.057592
    13  C   -0.349540
    14  O   -0.505504
    15  C    0.514115
    16  O   -0.445715
    17  H    0.088986
    18  H    0.122355
    19  H    0.122354
    20  H    0.066686
    21  H    0.071756
    22  H    0.063800
    23  H    0.090645
    24  H    0.094528
    25  H    0.122398
    26  H    0.122431
 Sum of Mulliken atomic charges =   0.00000
 Mulliken charges with hydrogens summed into heavy atoms:
              1
     1  C   -0.006777
     2  C    0.073452
     3  C   -0.036614
     4  C    0.170856
     5  C    0.157763
     6  C    0.144855
     7  C    0.259686
     8  C   -0.025253
     9  C   -0.091318
    10  O   -0.426560
    11  C    0.169605
    12  C    0.057592
    13  C   -0.010183
    14  O   -0.505504
    15  C    0.514115
    16  O   -0.445715
 Sum of Mulliken charges with hydrogens summed into heavy atoms =   0.00000
 Electronic spatial extent (au):  <R**2>=           3654.1804
 Charge=              0.0000 electrons
 Dipole moment (field-independent basis, Debye):
    X=              2.0404    Y=             -2.8106    Z=              0.0041  Tot=              3.4731
 Quadrupole moment (field-independent basis, Debye-Ang):
   XX=            -85.8023   YY=            -89.5705   ZZ=            -91.3806
   XY=             13.8238   XZ=             -0.0021   YZ=              0.0007
 Traceless Quadrupole moment (field-independent basis, Debye-Ang):
   XX=              3.1155   YY=             -0.6527   ZZ=             -2.4628
   XY=             13.8238   XZ=             -0.0021   YZ=              0.0007
 Octapole moment (field-independent basis, Debye-Ang**2):
  XXX=             25.3301  YYY=            -20.8000  ZZZ=             -0.0073  XYY=             25.6454
  XXY=            -10.5991  XXZ=              0.0260  XZZ=             -5.3960  YZZ=              8.8117
  YYZ=              0.0303  XYZ=              0.0005
 Hexadecapole moment (field-independent basis, Debye-Ang**3):
 XXXX=          -3203.3066 YYYY=          -1285.8380 ZZZZ=           -100.8536 XXXY=            133.3395
 XXXZ=             -0.0019 YYYX=             25.0154 YYYZ=             -0.0506 ZZZX=              0.0124
 ZZZY=              0.0018 XXYY=           -811.3968 XXZZ=           -583.7797 YYZZ=           -244.9229
 XXYZ=              0.0191 YYXZ=             -0.0196 ZZXY=            -17.5648
 N-N= 1.035306254253D+03 E-N=-3.763266087741D+03  KE= 7.204619535581D+02
 Calling FoFJK, ICntrl=      2527 FMM=F ISym2X=0 I1Cent= 0 IOpClX= 0 NMat=1 NMatS=1 NMatT=0.
 ***** Axes restored to original set *****
 -------------------------------------------------------------------
 Center     Atomic                   Forces (Hartrees/Bohr)
 Number     Number              X              Y              Z
 -------------------------------------------------------------------
      1        6          -0.004987912   -0.000391432    0.000006314
      2        6          -0.009161035    0.015301963   -0.000015745
      3        6           0.022869906   -0.009734783    0.000004836
      4        6          -0.017627655    0.000069185    0.000021514
      5        6          -0.016924507    0.017867383    0.000008708
      6        6          -0.011921676    0.016153948    0.000018473
      7        6          -0.005585336   -0.020723855   -0.000036546
      8        6          -0.003126631   -0.007314148    0.000020564
      9        6           0.018557148   -0.017695026    0.000010060
     10        8           0.012313987   -0.028389676    0.000006322
     11        6          -0.009609054    0.023163969    0.000022578
     12        6           0.019638399    0.003127851   -0.000029454
     13        6           0.002692858    0.007425631   -0.000005956
     14        8           0.023149155   -0.005610623    0.000009149
     15        6          -0.024713169   -0.008833012    0.000019034
     16        8           0.016974801    0.001599961   -0.000011316
     17        1           0.001365255   -0.002738285    0.000003769
     18        1          -0.003314206    0.006359972   -0.001440972
     19        1          -0.003321359    0.006359710    0.001431770
     20        1          -0.002578640   -0.005006165   -0.000013375
     21        1           0.003589809   -0.004513722   -0.000004761
     22        1          -0.003718605   -0.001283563   -0.000016616
     23        1           0.002215860    0.003448758    0.000002422
     24        1           0.002255611    0.001334931   -0.000004448
     25        1          -0.004514936    0.004999031    0.002178889
     26        1          -0.004518069    0.005021998   -0.002185214
 -------------------------------------------------------------------
 Cartesian Forces:  Max     0.028389676 RMS     0.009723136

 GradGradGradGradGradGradGradGradGradGradGradGradGradGradGradGradGradGrad
 Berny optimization.
 Internal  Forces:  Max     0.034362584 RMS     0.007771558
 Search for a local minimum.
 Step number   1 out of a maximum of  149
 All quantities printed in internal units (Hartrees-Bohrs-Radians)
 Mixed Optimization -- RFO/linear search
 Second derivative matrix not updated -- first step.
 ITU=  0
     Eigenvalues ---    0.00807   0.01023   0.01188   0.01360   0.01489
     Eigenvalues ---    0.01527   0.01750   0.01810   0.01847   0.01938
     Eigenvalues ---    0.01978   0.02110   0.02121   0.02177   0.02193
     Eigenvalues ---    0.02201   0.02269   0.02324   0.02376   0.07214
     Eigenvalues ---    0.07291   0.07418   0.07481   0.16000   0.16000
     Eigenvalues ---    0.16000   0.16000   0.16000   0.16000   0.16000
     Eigenvalues ---    0.16000   0.16000   0.16000   0.22561   0.23494
     Eigenvalues ---    0.23650   0.24531   0.25000   0.25000   0.25000
     Eigenvalues ---    0.25000   0.25000   0.25000   0.25000   0.32703
     Eigenvalues ---    0.33286   0.33921   0.34023   0.34377   0.34378
     Eigenvalues ---    0.34424   0.34428   0.34507   0.35097   0.35357
     Eigenvalues ---    0.35686   0.35765   0.37455   0.38354   0.39216
     Eigenvalues ---    0.40137   0.41019   0.43068   0.44739   0.45307
     Eigenvalues ---    0.46014   0.46854   0.47295   0.51476   0.53082
     Eigenvalues ---    0.56479   0.91578
 RFO step:  Lambda=-2.17897886D-02 EMin= 8.06680094D-03
 Linear search not attempted -- first point.
 Iteration  1 RMS(Cart)=  0.09329448 RMS(Int)=  0.00166871
 Iteration  2 RMS(Cart)=  0.00453484 RMS(Int)=  0.00005917
 Iteration  3 RMS(Cart)=  0.00000574 RMS(Int)=  0.00005911
 Iteration  4 RMS(Cart)=  0.00000000 RMS(Int)=  0.00005911
 Variable       Old X    -DE/DX   Delta X   Delta X   Delta X     New X
                                 (Linear)    (Quad)   (Total)
    R1        2.82877   0.01056   0.00000   0.03028   0.03028   2.85905
    R2        2.07464   0.00198   0.00000   0.00550   0.00550   2.08014
    R3        2.06698   0.00527   0.00000   0.01442   0.01442   2.08139
    R4        2.06698   0.00527   0.00000   0.01442   0.01442   2.08140
    R5        2.52510   0.03436   0.00000   0.05943   0.05941   2.58451
    R6        2.80482  -0.00213   0.00000  -0.00411  -0.00421   2.80061
    R7        2.73533   0.00494   0.00000   0.01418   0.01426   2.74959
    R8        2.05099   0.00563   0.00000   0.01499   0.01499   2.06598
    R9        2.65138   0.00923   0.00000   0.01745   0.01759   2.66897
   R10        2.63645   0.02908   0.00000   0.06034   0.06038   2.69683
   R11        2.67463  -0.00388   0.00000  -0.01000  -0.01000   2.66463
   R12        2.69382  -0.02196   0.00000  -0.05340  -0.05338   2.64044
   R13        2.63603   0.02378   0.00000   0.04935   0.04935   2.68539
   R14        2.71260   0.01411   0.00000   0.03051   0.03040   2.74300
   R15        2.63027   0.01123   0.00000   0.02360   0.02356   2.65382
   R16        2.56326   0.01478   0.00000   0.02899   0.02913   2.59239
   R17        2.62903   0.00716   0.00000   0.01585   0.01585   2.64488
   R18        2.04575   0.00566   0.00000   0.01494   0.01494   2.06069
   R19        2.05517   0.00311   0.00000   0.00835   0.00835   2.06352
   R20        2.55455   0.03292   0.00000   0.05876   0.05880   2.61336
   R21        2.61228  -0.00397   0.00000  -0.00993  -0.01003   2.60226
   R22        2.04451   0.00284   0.00000   0.00748   0.00748   2.05199
   R23        2.79784   0.01879   0.00000   0.05123   0.05123   2.84907
   R24        2.07291   0.00258   0.00000   0.00713   0.00713   2.08004
   R25        2.06621   0.00561   0.00000   0.01533   0.01533   2.08154
   R26        2.06614   0.00563   0.00000   0.01538   0.01538   2.08152
   R27        2.64602   0.00189   0.00000   0.00217   0.00209   2.64810
   R28        2.32214  -0.00668   0.00000  -0.00713  -0.00713   2.31501
    A1        1.94233  -0.00283   0.00000  -0.00933  -0.00933   1.93301
    A2        1.93576   0.00193   0.00000   0.00750   0.00750   1.94326
    A3        1.93569   0.00195   0.00000   0.00758   0.00758   1.94327
    A4        1.86948   0.00193   0.00000   0.01662   0.01662   1.88610
    A5        1.86954   0.00193   0.00000   0.01659   0.01659   1.88613
    A6        1.90860  -0.00501   0.00000  -0.03919  -0.03918   1.86942
    A7        2.10651   0.01572   0.00000   0.05386   0.05391   2.16042
    A8        2.06856  -0.00818   0.00000  -0.03408  -0.03402   2.03453
    A9        2.10812  -0.00753   0.00000  -0.01978  -0.01989   2.08823
   A10        2.11416   0.00051   0.00000   0.01179   0.01186   2.12602
   A11        2.11184   0.00004   0.00000  -0.00428  -0.00432   2.10752
   A12        2.05719  -0.00055   0.00000  -0.00751  -0.00755   2.04964
   A13        2.09722  -0.01155   0.00000  -0.04120  -0.04105   2.05618
   A14        2.07254   0.01648   0.00000   0.06079   0.06063   2.13317
   A15        2.11342  -0.00493   0.00000  -0.01958  -0.01958   2.09384
   A16        2.08387   0.00569   0.00000   0.02026   0.02026   2.10413
   A17        2.06556   0.01359   0.00000   0.04448   0.04460   2.11016
   A18        2.13375  -0.01927   0.00000  -0.06474  -0.06485   2.06890
   A19        2.04033  -0.00069   0.00000  -0.00450  -0.00445   2.03588
   A20        2.41091  -0.00906   0.00000  -0.02921  -0.02916   2.38176
   A21        1.83194   0.00975   0.00000   0.03371   0.03361   1.86555
   A22        2.18036   0.00153   0.00000   0.00338   0.00326   2.18362
   A23        1.93793  -0.00864   0.00000  -0.02734  -0.02717   1.91076
   A24        2.16490   0.00711   0.00000   0.02396   0.02391   2.18880
   A25        2.03774  -0.00307   0.00000  -0.00884  -0.00884   2.02890
   A26        2.12048   0.00039   0.00000  -0.00190  -0.00190   2.11858
   A27        2.12497   0.00269   0.00000   0.01074   0.01074   2.13571
   A28        2.11065   0.00147   0.00000   0.00929   0.00936   2.12001
   A29        2.09836  -0.00320   0.00000  -0.01821  -0.01825   2.08011
   A30        2.07417   0.00173   0.00000   0.00893   0.00889   2.08307
   A31        1.86553  -0.00480   0.00000  -0.01054  -0.01030   1.85523
   A32        1.94027   0.00893   0.00000   0.03286   0.03279   1.97306
   A33        2.01024  -0.00144   0.00000   0.00022   0.00025   2.01049
   A34        2.33267  -0.00749   0.00000  -0.03308  -0.03304   2.29963
   A35        1.84910  -0.00523   0.00000  -0.02870  -0.02893   1.82017
   A36        2.24725  -0.00206   0.00000  -0.00287  -0.00276   2.24450
   A37        2.18683   0.00730   0.00000   0.03157   0.03169   2.21852
   A38        1.93302  -0.00003   0.00000   0.00319   0.00310   1.93612
   A39        1.93064   0.00342   0.00000   0.01712   0.01706   1.94770
   A40        1.93065   0.00344   0.00000   0.01722   0.01717   1.94783
   A41        1.88062  -0.00092   0.00000  -0.00183  -0.00192   1.87870
   A42        1.88078  -0.00093   0.00000  -0.00190  -0.00199   1.87879
   A43        1.90668  -0.00528   0.00000  -0.03540  -0.03541   1.87127
   A44        2.13800   0.00176   0.00000  -0.00622  -0.00628   2.13172
   A45        2.04331   0.00323   0.00000   0.01093   0.01075   2.05407
   A46        2.11498   0.01659   0.00000   0.06153   0.06162   2.17660
   A47        2.12489  -0.01982   0.00000  -0.07246  -0.07237   2.05252
    D1       -0.00039   0.00000   0.00000   0.00005   0.00005  -0.00034
    D2        3.14147   0.00000   0.00000  -0.00003  -0.00003   3.14144
    D3       -2.07978  -0.00185   0.00000  -0.01968  -0.01968  -2.09946
    D4        1.06208  -0.00185   0.00000  -0.01975  -0.01975   1.04232
    D5        2.07902   0.00185   0.00000   0.01979   0.01979   2.09882
    D6       -1.06231   0.00185   0.00000   0.01972   0.01972  -1.04259
    D7        3.14145   0.00000   0.00000   0.00005   0.00005   3.14150
    D8       -0.00039   0.00001   0.00000   0.00017   0.00017  -0.00022
    D9       -0.00041   0.00001   0.00000   0.00013   0.00013  -0.00029
   D10        3.14094   0.00001   0.00000   0.00024   0.00025   3.14118
   D11        3.14139   0.00001   0.00000   0.00016   0.00016   3.14155
   D12        0.00008   0.00000   0.00000  -0.00017  -0.00018  -0.00010
   D13        0.00007   0.00000   0.00000   0.00008   0.00008   0.00014
   D14       -3.14124  -0.00001   0.00000  -0.00026  -0.00027  -3.14151
   D15        0.00056  -0.00001   0.00000  -0.00024  -0.00023   0.00033
   D16       -3.14150   0.00000   0.00000   0.00003   0.00004  -3.14145
   D17       -3.14080  -0.00002   0.00000  -0.00035  -0.00035  -3.14114
   D18        0.00033  -0.00001   0.00000  -0.00008  -0.00007   0.00026
   D19        3.14083   0.00002   0.00000   0.00042   0.00042   3.14126
   D20       -0.00033   0.00001   0.00000   0.00011   0.00011  -0.00023
   D21       -0.00029   0.00000   0.00000   0.00013   0.00014  -0.00015
   D22       -3.14146  -0.00001   0.00000  -0.00018  -0.00018   3.14155
   D23       -3.14151   0.00000   0.00000  -0.00004  -0.00005  -3.14156
   D24       -0.00018   0.00000   0.00000   0.00002   0.00001  -0.00017
   D25       -0.00038   0.00001   0.00000   0.00022   0.00022  -0.00016
   D26        3.14095   0.00001   0.00000   0.00028   0.00028   3.14123
   D27        0.00074  -0.00001   0.00000  -0.00035  -0.00035   0.00039
   D28       -3.14020  -0.00004   0.00000  -0.00078  -0.00078  -3.14098
   D29       -3.14129   0.00001   0.00000   0.00000  -0.00001  -3.14131
   D30        0.00095  -0.00002   0.00000  -0.00043  -0.00044   0.00051
   D31       -0.00001   0.00000   0.00000   0.00011   0.00011   0.00010
   D32       -3.14116  -0.00001   0.00000  -0.00024  -0.00023  -3.14139
   D33       -0.00060   0.00001   0.00000   0.00023   0.00023  -0.00037
   D34        3.14132   0.00001   0.00000   0.00028   0.00028  -3.14158
   D35        3.14055   0.00002   0.00000   0.00052   0.00052   3.14107
   D36       -0.00072   0.00002   0.00000   0.00056   0.00057  -0.00015
   D37       -3.14152  -0.00001   0.00000  -0.00022  -0.00022   3.14145
   D38        0.00045  -0.00001   0.00000  -0.00021  -0.00022   0.00023
   D39        0.00067  -0.00002   0.00000  -0.00061  -0.00061   0.00006
   D40       -3.14054  -0.00003   0.00000  -0.00061  -0.00061  -3.14115
   D41       -0.00004   0.00000   0.00000   0.00011   0.00011   0.00007
   D42       -3.14101  -0.00001   0.00000  -0.00020  -0.00020  -3.14121
   D43        3.14118   0.00000   0.00000   0.00005   0.00005   3.14123
   D44        0.00022  -0.00001   0.00000  -0.00027  -0.00027  -0.00005
   D45        0.00047  -0.00001   0.00000  -0.00030  -0.00030   0.00018
   D46       -3.14080  -0.00001   0.00000  -0.00025  -0.00024  -3.14104
   D47        0.00054  -0.00002   0.00000  -0.00034  -0.00034   0.00020
   D48       -3.14080  -0.00002   0.00000  -0.00040  -0.00040  -3.14120
   D49        3.14150   0.00000   0.00000  -0.00003  -0.00003   3.14147
   D50        0.00017   0.00000   0.00000  -0.00009  -0.00009   0.00008
   D51       -0.00001  -0.00001   0.00000  -0.00013  -0.00013  -0.00014
   D52        3.14127   0.00001   0.00000   0.00018   0.00019   3.14146
   D53       -0.00043   0.00002   0.00000   0.00048   0.00047   0.00005
   D54        3.14081   0.00002   0.00000   0.00047   0.00046   3.14127
   D55        3.14155   0.00000   0.00000   0.00007   0.00008  -3.14156
   D56       -0.00040   0.00000   0.00000   0.00006   0.00006  -0.00034
   D57       -3.14144   0.00000   0.00000   0.00001   0.00001  -3.14143
   D58        1.05780  -0.00104   0.00000  -0.01084  -0.01087   1.04693
   D59       -1.05729   0.00104   0.00000   0.01084   0.01087  -1.04642
   D60        0.00060   0.00000   0.00000   0.00002   0.00002   0.00062
   D61       -2.08335  -0.00104   0.00000  -0.01082  -0.01085  -2.09420
   D62        2.08475   0.00104   0.00000   0.01085   0.01088   2.09563
   D63        0.00015  -0.00001   0.00000  -0.00020  -0.00020  -0.00005
   D64        3.14146   0.00001   0.00000   0.00016   0.00014  -3.14158
         Item               Value     Threshold  Converged?
 Maximum Force            0.034363     0.000450     NO 
 RMS     Force            0.007772     0.000300     NO 
 Maximum Displacement     0.360559     0.001800     NO 
 RMS     Displacement     0.096138     0.001200     NO 
 Predicted change in Energy=-1.160001D-02
 GradGradGradGradGradGradGradGradGradGradGradGradGradGradGradGradGradGrad

                          Input orientation:                          
 ---------------------------------------------------------------------
 Center     Atomic      Atomic             Coordinates (Angstroms)
 Number     Number       Type             X           Y           Z
 ---------------------------------------------------------------------
      1          6           0        1.083711    0.201519    0.048596
      2          6           0        2.587266    0.033243    0.048850
      3          6           0        3.216600   -1.181021    0.049597
      4          6           0        4.667302   -1.293027    0.049701
      5          6           0        5.420437   -0.098231    0.049410
      6          6           0        6.829904   -0.139261    0.049898
      7          6           0        7.430006   -1.427379    0.050184
      8          6           0        6.729786   -2.644700    0.050437
      9          6           0        5.333032   -2.555333    0.050309
     10          8           0        8.795522   -1.295868    0.050661
     11          6           0        9.054560    0.062584    0.050909
     12          6           0        7.910838    0.829512    0.050436
     13          6           0        7.824901    2.334722    0.050924
     14          8           0        4.788881    1.148154    0.048764
     15          6           0        3.393481    1.276786    0.048490
     16          8           0        2.927960    2.409943    0.047910
     17          1           0        0.581599   -0.778051    0.048739
     18          1           0        0.743027    0.759839   -0.837604
     19          1           0        0.742760    0.760265    0.934428
     20          1           0        2.639673   -2.109670    0.050258
     21          1           0        7.253562   -3.601142    0.051008
     22          1           0        4.738114   -3.471012    0.050869
     23          1           0       10.106328    0.332573    0.051424
     24          1           0        8.828889    2.785913    0.051109
     25          1           0        7.290120    2.709962    0.937778
     26          1           0        7.290042    2.710658   -0.835576
 ---------------------------------------------------------------------
                    Distance matrix (angstroms):
                    1          2          3          4          5
     1  C    0.000000
     2  C    1.512942   0.000000
     3  C    2.541778   1.367662   0.000000
     4  C    3.882756   2.466890   1.455020   0.000000
     5  C    4.347073   2.836220   2.455470   1.412357   0.000000
     6  C    5.756289   4.246143   3.760482   2.451126   1.410064
     7  C    6.552005   5.058216   4.220602   2.765968   2.409357
     8  C    6.322905   4.932732   3.805894   2.465939   2.863372
     9  C    5.065270   3.773587   2.523493   1.427099   2.458657
    10  O    7.855838   6.348935   5.580103   4.128220   3.581275
    11  C    7.972060   6.467361   5.968947   4.591918   3.637679
    12  C    6.855949   5.382794   5.106674   3.876300   2.657594
    13  C    7.070658   5.720982   5.796282   4.809470   3.420630
    14  O    3.824186   2.467820   2.810182   2.444207   1.397261
    15  C    2.547790   1.482020   2.464164   2.868199   2.449332
    16  O    2.877219   2.400995   3.602546   4.091125   3.536012
    17  H    1.100761   2.163538   2.665637   4.118031   4.886360
    18  H    1.101425   2.171396   3.266899   4.516803   4.837484
    19  H    1.101428   2.171408   3.266712   4.516723   4.837452
    20  H    2.786147   2.143554   1.093268   2.185906   3.431987
    21  H    7.247572   5.914649   4.706809   3.466430   3.953573
    22  H    5.180941   4.111685   2.749375   2.179136   3.441108
    23  H    9.023570   7.525019   7.054029   5.676758   4.705653
    24  H    8.164979   6.821661   6.872726   5.827226   4.464956
    25  H    6.752958   5.483781   5.702822   4.867420   3.488675
    26  H    6.752487   5.483326   5.702773   4.867440   3.488335
                    6          7          8          9         10
     6  C    0.000000
     7  C    1.421045   0.000000
     8  C    2.507438   1.404342   0.000000
     9  C    2.842187   2.381088   1.399610   0.000000
    10  O    2.280656   1.371834   2.467106   3.684439   0.000000
    11  C    2.233795   2.204352   3.568468   4.550084   1.382929
    12  C    1.451531   2.307544   3.669473   4.254676   2.302152
    13  C    2.666574   3.782770   5.098423   5.488356   3.758096
    14  O    2.413133   3.689026   4.260617   3.743250   4.693231
    15  C    3.716745   4.858605   5.148688   4.294997   5.983360
    16  O    4.660859   5.915527   6.324816   5.517095   6.939836
    17  H    6.280873   6.879121   6.425308   5.072953   8.230229
    18  H    6.216600   7.091387   6.944119   5.731222   8.358087
    19  H    6.216499   7.091328   6.944041   5.731096   8.357972
    20  H    4.630393   4.838678   4.124958   2.729981   6.209408
    21  H    3.487708   2.180912   1.090469   2.186813   2.773432
    22  H    3.933974   3.379751   2.156281   1.091969   4.603673
    23  H    3.310225   3.203145   4.501688   5.578921   2.090463
    24  H    3.542964   4.439449   5.822181   6.383568   4.081918
    25  H    3.019636   4.233790   5.456532   5.686926   4.370341
    26  H    3.019575   4.234089   5.456992   5.687297   4.370827
                   11         12         13         14         15
    11  C    0.000000
    12  C    1.377054   0.000000
    13  C    2.583539   1.507661   0.000000
    14  O    4.401646   3.138177   3.259657   0.000000
    15  C    5.789828   4.539447   4.555955   1.401317   0.000000
    16  O    6.560894   5.227508   4.897520   2.248364   1.225052
    17  H    8.514561   7.503467   7.883831   4.627255   3.482677
    18  H    8.387920   7.222949   7.309082   4.159973   2.842060
    19  H    8.387693   7.222713   7.308640   4.160043   2.842182
    20  H    6.772700   6.035228   6.829291   3.902885   3.469339
    21  H    4.082460   4.479141   5.963297   5.350745   6.220484
    22  H    5.578352   5.344220   6.575318   4.619446   4.934535
    23  H    1.085869   2.251028   3.035377   5.379631   6.778929
    24  H    2.732663   2.161093   1.100712   4.359349   5.641023
    25  H    3.302785   2.169967   1.101502   3.079900   4.246013
    26  H    3.303282   2.170049   1.101491   3.078844   4.245086
                   16         17         18         19         20
    16  O    0.000000
    17  H    3.958373   0.000000
    18  H    2.877657   1.782349   0.000000
    19  H    2.877925   1.782368   1.772032   0.000000
    20  H    4.528798   2.451302   3.552414   3.551981   0.000000
    21  H    7.405672   7.244649   7.886372   7.886245   4.848965
    22  H    6.153235   4.952642   5.886443   5.886191   2.501341
    23  H    7.472915   9.589263   9.415113   9.414831   7.855921
    24  H    5.912895   8.984412   8.383076   8.382660   7.891333
    25  H    4.462098   7.613205   7.058285   6.831490   6.755975
    26  H    4.460800   7.612905   6.831479   7.057184   6.756197
                   21         22         23         24         25
    21  H    0.000000
    22  H    2.518812   0.000000
    23  H    4.859258   6.579132   0.000000
    24  H    6.578459   7.475531   2.765996   0.000000
    25  H    6.373204   6.745649   3.790598   1.777572   0.000000
    26  H    6.373867   6.746196   3.791244   1.777618   1.773354
                   26
    26  H    0.000000
 Stoichiometry    C13H10O3
 Framework group  C1[X(C13H10O3)]
 Deg. of freedom    72
 Full point group                 C1      NOp   1
 Largest Abelian subgroup         C1      NOp   1
 Largest concise Abelian subgroup C1      NOp   1
                         Standard orientation:                         
 ---------------------------------------------------------------------
 Center     Atomic      Atomic             Coordinates (Angstroms)
 Number     Number       Type             X           Y           Z
 ---------------------------------------------------------------------
      1          6           0       -4.368752   -0.350330    0.000346
      2          6           0       -2.856672   -0.299275    0.000087
      3          6           0       -2.058260   -1.409697    0.000425
      4          6           0       -0.606618   -1.310611    0.000042
      5          6           0       -0.034293   -0.019412   -0.000291
      6          6           0        1.366277    0.143936   -0.000265
      7          6           0        2.146451   -1.043793   -0.000390
      8          6           0        1.629744   -2.349622   -0.000116
      9          6           0        0.234758   -2.463303    0.000222
     10          8           0        3.478567   -0.716079   -0.000332
     11          6           0        3.538315    0.665559    0.000062
     12          6           0        2.295657    1.258922    0.000087
     13          6           0        1.992824    2.735856    0.000857
     14          8           0       -0.839552    1.122471   -0.000523
     15          6           0       -2.238880    1.047839   -0.000324
     16          8           0       -2.863466    2.101710   -0.000563
     17          1           0       -4.723839   -1.392246    0.000486
     18          1           0       -4.786944    0.152924   -0.885650
     19          1           0       -4.786660    0.153094    0.886383
     20          1           0       -2.494741   -2.412052    0.001116
     21          1           0        2.286403   -3.220210    0.000124
     22          1           0       -0.221402   -3.455429    0.000820
     23          1           0        4.539948    1.084894    0.000283
     24          1           0        2.920960    3.327574    0.000794
     25          1           0        1.409680    3.029659    0.887947
     26          1           0        1.408892    3.030550   -0.885406
 ---------------------------------------------------------------------
 Rotational constants (GHZ):      1.0332178      0.3987574      0.2887580
 Standard basis: 6-31G(d,p) (6D, 7F)
 There are   290 symmetry adapted basis functions of A   symmetry.
 Integral buffers will be    131072 words long.
 Raffenetti 2 integral format.
 Two-electron integral symmetry is turned on.
   290 basis functions,   518 primitive gaussians,   290 cartesian basis functions
    56 alpha electrons       56 beta electrons
       nuclear repulsion energy      1031.5023902675 Hartrees.
 NAtoms=   26 NActive=   26 NUniq=   26 SFac= 1.00D+00 NAtFMM=   60 NAOKFM=F Big=F
 One-electron integrals computed using PRISM.
 NBasis=   290 RedAO= T  NBF=   290
 NBsUse=   290 1.00D-06 NBFU=   290
 Initial guess read from the read-write file.
 B after Tr=     0.000000    0.000000    0.000000
         Rot=    1.000000    0.000000    0.000000    0.000000 Ang=   0.00 deg.
 Initial guess orbital symmetries:
       Occupied  (A) (A) (A) (A) (A) (A) (A) (A) (A) (A) (A) (A)
                 (A) (A) (A) (A) (A) (A) (A) (A) (A) (A) (A) (A)
                 (A) (A) (A) (A) (A) (A) (A) (A) (A) (A) (A) (A)
                 (A) (A) (A) (A) (A) (A) (A) (A) (A) (A) (A) (A)
                 (A) (A) (A) (A) (A) (A) (A) (A)
       Virtual   (A) (A) (A) (A) (A) (A) (A) (A) (A) (A) (A) (A)
                 (A) (A) (A) (A) (A) (A) (A) (A) (A) (A) (A) (A)
                 (A) (A) (A) (A) (A) (A) (A) (A) (A) (A) (A) (A)
                 (A) (A) (A) (A) (A) (A) (A) (A) (A) (A) (A) (A)
                 (A) (A) (A) (A) (A) (A) (A) (A) (A) (A) (A) (A)
                 (A) (A) (A) (A) (A) (A) (A) (A) (A) (A) (A) (A)
                 (A) (A) (A) (A) (A) (A) (A) (A) (A) (A) (A) (A)
                 (A) (A) (A) (A) (A) (A) (A) (A) (A) (A) (A) (A)
                 (A) (A) (A) (A) (A) (A) (A) (A) (A) (A) (A) (A)
                 (A) (A) (A) (A) (A) (A) (A) (A) (A) (A) (A) (A)
                 (A) (A) (A) (A) (A) (A) (A) (A) (A) (A) (A) (A)
                 (A) (A) (A) (A) (A) (A) (A) (A) (A) (A) (A) (A)
                 (A) (A) (A) (A) (A) (A) (A) (A) (A) (A) (A) (A)
                 (A) (A) (A) (A) (A) (A) (A) (A) (A) (A) (A) (A)
                 (A) (A) (A) (A) (A) (A) (A) (A) (A) (A) (A) (A)
                 (A) (A) (A) (A) (A) (A) (A) (A) (A) (A) (A) (A)
                 (A) (A) (A) (A) (A) (A) (A) (A) (A) (A) (A) (A)
                 (A) (A) (A) (A) (A) (A) (A) (A) (A) (A) (A) (A)
                 (A) (A) (A) (A) (A) (A) (A) (A) (A) (A) (A) (A)
                 (A) (A) (A) (A) (A) (A)
 Harris functional with IExCor=  402 diagonalized for initial guess.
 ExpMin= 1.61D-01 ExpMax= 5.48D+03 ExpMxC= 8.25D+02 IAcc=1 IRadAn=         1 AccDes= 0.00D+00
 HarFok:  IExCor=  402 AccDes= 0.00D+00 IRadAn=         1 IDoV= 1
 ScaDFX=  1.000000  1.000000  1.000000  1.000000
 FoFCou: FMM=F IPFlag=           0 FMFlag=      100000 FMFlg1=           0
         NFxFlg=           0 DoJE=T BraDBF=F KetDBF=T FulRan=T
         Omega=  0.000000  0.000000  1.000000  0.000000  0.000000 ICntrl=     500 IOpCl=  0
         NMat0=    1 NMatS0=    1 NMatT0=    0 NMatD0=    1 NMtDS0=    0 NMtDT0=    0
         I1Cent=           4 NGrid=           0.
 Petite list used in FoFCou.
 Requested convergence on RMS density matrix=1.00D-08 within 128 cycles.
 Requested convergence on MAX density matrix=1.00D-06.
 Requested convergence on             energy=1.00D-06.
 No special actions if energy rises.
 Keep J ints in memory in canonical form, NReq=903046414.
 Integral accuracy reduced to 1.0D-05 until final iterations.
 Initial convergence to 1.0D-05 achieved.  Increase integral accuracy.
 SCF Done:  E(RB-LYP) =  -726.854559714     A.U. after   14 cycles
             Convg  =    0.9015D-08             -V/T =  2.0096
 Calling FoFJK, ICntrl=      2527 FMM=F ISym2X=0 I1Cent= 0 IOpClX= 0 NMat=1 NMatS=1 NMatT=0.
 ***** Axes restored to original set *****
 -------------------------------------------------------------------
 Center     Atomic                   Forces (Hartrees/Bohr)
 Number     Number              X              Y              Z
 -------------------------------------------------------------------
      1        6          -0.000140853   -0.002631498    0.000001810
      2        6           0.000895208    0.001486416    0.000012327
      3        6           0.007994413    0.001353806   -0.000000018
      4        6          -0.008022204   -0.004335780    0.000010954
      5        6          -0.005380301    0.010678832   -0.000005698
      6        6          -0.003070402   -0.002544986   -0.000003652
      7        6          -0.002970189    0.001571188    0.000006015
      8        6          -0.003092559    0.001453698    0.000004939
      9        6           0.005699895   -0.000640263    0.000005434
     10        8           0.005276392   -0.006425811    0.000009371
     11        6          -0.002697583    0.009306421   -0.000011080
     12        6           0.005718694   -0.001816736    0.000005864
     13        6           0.001065811    0.000228346   -0.000001006
     14        8           0.013678062   -0.009428975    0.000015901
     15        6          -0.013996358   -0.000223769   -0.000020338
     16        8           0.001618544    0.000098710    0.000004383
     17        1           0.000599382   -0.000164116    0.000002083
     18        1           0.000485732    0.001584221    0.000392121
     19        1           0.000483912    0.001582834   -0.000393575
     20        1          -0.001551530   -0.000153899   -0.000012993
[...]
 04550,-0.00000947,-0.00000806,0.00003811,-0.00000044,0.00000902,0.0000
 2414,0.00000006,0.00000068,0.00000765,-0.00000004,0.00041816,-0.000415
 70,-0.00020672,-0.00099635,0.00233483,0.00075320,0.00125176,-0.0009975
 0,0.00013094,0.00145977,-0.00161112,0.00129832,0.06325001,-0.11625276,
 0.22246584,-0.06337942,0.03582769,0.05933554,-0.01298604,0.01760992,0.
 02455979,-0.00265567,-0.00190100,0.00069699,-0.00061191,0.00070569,-0.
 00199868,-0.00001516,0.00076478,0.00013417,-0.00008749,-0.00002076,0.0
 0021819,0.00025165,0.00003322,-0.00001498,-0.00017815,-0.00007471,0.00
 016504,-0.00011865,-0.00034220,-0.00023264,-0.00035841,-0.00017190,-0.
 00003099,-0.00004631,0.00015560,-0.00000402,0.00003417,0.00009252,-0.0
 0000267,-0.00000439,0.00003413,0.00001819,0.00105778,-0.00039137,-0.00
 072049,-0.00148292,0.00372548,0.00054958,0.00151182,-0.00188415,-0.000
 56823,0.00418109,-0.00648460,-0.01261850,0.00279957,-0.00499193,-0.006
 96767,0.07216665,0.03393590,-0.11127955,-0.10651116,0.00532686,-0.0030
 3300,-0.00147418,0.00032156,0.00090621,-0.00035824,0.00063555,-0.00020
 298,0.00038114,-0.00020303,0.00017321,0.00002623,0.00000115,-0.0000313
 4,0.00006781,-0.00000733,-0.00003296,0.00002951,0.00008279,-0.00006354
 ,-0.00001862,-0.00006654,0.00014063,0.00003387,-0.00004442,-0.00005967
 ,-0.00003233,-0.00001317,0.00007313,0.00000987,0.00002769,0.00000931,-
 0.00001337,0.00000229,0.00000421,0.00000181,0.00095075,-0.00022802,-0.
 00031584,-0.00186678,-0.00016136,0.00076036,0.00024044,0.00015097,-0.0
 0018730,0.00846446,-0.01287964,-0.02182580,-0.00499875,0.00821659,0.01
 356805,-0.04277530,0.11809727,0.05820291,-0.10604601,-0.20518462,0.000
 88328,0.00189937,0.00336223,-0.00064710,0.00073564,-0.00026491,0.00010
 980,0.00010700,-0.00041083,-0.00005188,-0.00024904,-0.00002488,0.00001
 370,0.00002291,0.00006420,-0.00006768,-0.00001750,0.00000259,0.0000511
 4,0.00005765,0.00002850,-0.00007131,0.00008499,0.00001800,0.00008438,0
 .00004541,-0.00000944,0.00000804,-0.00003803,-0.00000043,-0.00000901,-
 0.00002409,0.00000006,-0.00000068,-0.00000763,-0.00000003,-0.00041758,
 0.00041551,-0.00020748,0.00099544,-0.00233232,0.00075433,-0.00125087,0
 .00099633,0.00012988,-0.00145928,0.00160932,0.00129304,0.00698298,-0.0
 1357573,-0.02208764,-0.06333105,0.11624262,0.22235345,0.00140422,0.001
 47879,0.00000207,0.00970349,0.01126216,-0.00000103,-0.13342959,-0.1192
 1454,-0.00001242,-0.01305741,-0.02586634,-0.00000143,-0.00524757,0.002
 98414,-0.00000318,-0.00035681,-0.00179260,0.00000013,0.00028481,-0.000
 16998,0.00000011,-0.00001452,0.00043417,-0.00000004,0.00163443,-0.0020
 7345,0.00000137,-0.00010277,0.00017541,-0.00000006,-0.00005772,-0.0002
 1461,0.,-0.00028113,0.00031751,-0.00000009,-0.00003067,0.00003951,0.,0
 .00098820,0.00018408,0.00000081,-0.00237718,0.00287432,-0.00000464,0.0
 0091923,0.00060517,0.00000106,-0.00012696,-0.00028526,-0.00000011,-0.0
 0004150,-0.00001053,0.00002591,-0.00004199,-0.00001029,-0.00002604,0.1
 4045275,-0.00213334,0.00075110,-0.00000158,-0.01654086,-0.02048995,-0.
 00000083,-0.11823146,-0.23633221,-0.00000883,0.00215039,0.00375271,0.0
 0000071,0.00098668,0.00076347,0.00000076,0.00009765,0.00020886,-0.0000
 0005,0.00021860,0.00013834,0.00000003,-0.00040114,0.00005755,-0.000000
 16,0.00125657,0.00085546,0.,-0.00022735,-0.00002335,-0.00000005,0.0000
 0557,0.00002230,0.,0.00003828,0.00003973,0.,0.00000184,-0.00000214,0.,
 -0.00036495,0.00013350,-0.00000039,0.00497296,-0.00119423,0.00000325,-
 0.00091014,-0.00210861,-0.00000049,0.00126916,0.00046788,0.00000038,0.
 00012786,0.00021980,-0.00005526,0.00012807,0.00021966,0.00005536,0.128
 07986,0.25225059,0.00000258,-0.00000043,-0.00596246,0.00000320,0.00000
 768,0.00699871,-0.00001244,-0.00000935,-0.03850681,-0.00000572,-0.0000
 0778,0.00382874,-0.00000280,0.00000131,0.00371656,-0.00000006,-0.00000
 055,-0.00016768,0.00000007,-0.00000006,-0.00000300,0.00000005,0.000000
 11,-0.00008005,0.00000093,-0.00000107,-0.00186112,-0.00000002,0.000000
 05,0.00002483,-0.00000003,-0.00000005,0.00004261,-0.00000002,0.0000000
 6,-0.00017732,-0.00000001,0.00000002,-0.00001792,0.00000093,-0.0000002
 3,-0.00160643,-0.00000519,0.00000230,0.01152197,0.00000124,0.00000059,
 -0.00263935,-0.00000038,-0.00000021,0.00025518,-0.00083423,0.00038329,
 0.00019227,0.00083411,-0.00038337,0.00019281,0.00001792,0.00000732,0.0
 2391419,0.00002107,0.00013478,0.00000004,-0.00041639,0.00000791,-0.000
 00006,0.00017422,0.00141773,-0.00000044,-0.00454609,-0.00171803,-0.000
 00351,-0.00098219,-0.00055865,-0.00000011,-0.00176951,-0.00217568,-0.0
 0000196,0.01132162,-0.01475862,0.00000490,-0.11647811,0.11381011,-0.00
 004211,-0.00872217,0.02750189,-0.00000649,0.00136563,0.00192752,0.0000
 0109,0.00014031,-0.00030124,0.00000018,0.00050591,-0.00084311,0.000000
 22,-0.00028286,-0.00003618,-0.00000010,0.00037927,0.00004725,0.0000003
 8,-0.00022447,-0.00028393,-0.00000004,0.00003183,0.00013368,-0.0000000
 1,0.00000443,-0.00001347,0.,-0.00004421,0.00001153,-0.00000094,-0.0000
 4423,0.00001153,0.00000091,-0.00003389,-0.00002710,-0.00000003,0.11843
 326,-0.00000501,-0.00001237,-0.00000002,0.00001825,0.00002168,-0.00000
 002,-0.00009783,0.00004888,0.00000005,-0.00070191,0.00170151,0.0000004
 3,-0.00125338,-0.00009536,-0.00000045,-0.00333138,-0.00115632,-0.00000
 043,0.01546483,-0.01872183,0.00000771,0.11359541,-0.26779562,0.0000657
 6,-0.00095006,0.00329980,-0.00000062,0.00065484,0.00248086,-0.00000043
 ,-0.00016416,-0.00093394,-0.00000003,0.00079326,-0.00077220,0.00000038
 ,-0.00046980,0.00003420,-0.00000010,0.00025297,-0.00001689,-0.00000001
 ,-0.00009409,0.00008312,-0.00000004,0.00003705,-0.00004194,0.00000002,
 0.00000452,0.00000428,0.,0.00001087,0.00000122,0.00000094,0.00001088,0
 .00000122,-0.00000094,0.00000843,0.00000272,0.,-0.12399999,0.28125183,
 0.00000004,0.00000002,-0.00014673,-0.00000008,-0.00000004,-0.00023026,
 -0.00000020,0.00000057,0.00077302,-0.00000366,0.00000002,0.00730233,0.
 00000012,-0.00000016,-0.00032445,-0.00000189,0.00000024,0.00504732,0.0
 0000102,-0.00000272,0.00192731,-0.00004164,0.00006630,-0.02876813,-0.0
 0000322,0.00000852,0.00057502,0.00000114,-0.00000004,-0.00275803,0.000
 00017,-0.00000004,-0.00039113,0.,-0.00000012,0.00014793,-0.00000004,0.
 ,0.00006546,0.00000034,-0.00000007,-0.00086491,-0.00000003,-0.00000008
 ,0.00001756,0.,0.00000004,0.00003158,0.,0.,0.00000518,-0.00003601,0.00
 000762,-0.00000183,0.00003599,-0.00000762,-0.00000180,-0.00000003,0.,0
 .00005707,0.00004634,-0.00007169,0.02165422,-0.00001762,-0.00004495,-0
 .00000009,0.00001961,-0.00043218,0.00000012,0.00121798,0.00127586,0.00
 000123,0.00954427,0.01213027,0.00000095,-0.00162660,0.00225239,-0.0000
 0222,-0.00040491,0.00032593,0.00000012,-0.00446509,0.00261628,-0.00000
 359,-0.01255700,-0.02650865,-0.00000132,-0.13532421,-0.12197100,-0.000
 01805,-0.00069724,-0.00214430,-0.00000047,-0.00046668,0.00061240,-0.00
 000019,0.00024920,-0.00011776,0.00000011,0.00000306,0.00001090,-0.0000
 0002,0.00035334,0.00105154,-0.00000024,0.00056913,0.00019049,0.0000001
 8,-0.00011433,-0.00012908,-0.00000002,-0.00002059,0.00001249,-0.000000
 01,0.00002270,-0.00000920,0.00000615,0.00002274,-0.00000920,-0.0000061
 3,-0.00015583,-0.00050762,-0.00000007,0.00118492,0.00022263,0.00000167
 ,0.14266950,-0.00004474,0.00000500,0.00000002,0.00053089,0.00006611,0.
 00000013,-0.00248144,0.00105161,-0.00000131,-0.01536628,-0.01938001,-0
 .00000215,0.00406178,-0.00175735,0.00000206,0.00044906,-0.00004522,0.0
 0000003,0.00104308,0.00110165,0.00000103,0.00286131,0.00483645,0.00000
 058,-0.12249031,-0.24139899,-0.00001150,0.00005928,0.00022559,0.000000
 18,0.00002180,0.00011256,-0.00000001,0.00005764,0.00005270,0.,-0.00000
 779,0.00000496,0.00000002,-0.00022916,-0.00171054,0.00000027,-0.001284
 83,0.00044372,-0.00000045,0.00039490,-0.00019975,0.00000012,0.00004983
 ,0.00002118,0.00000001,0.00001168,-0.00000973,-0.00000785,0.00001167,-
 0.00000972,0.00000786,0.00118676,0.00027781,0.00000035,-0.00027807,0.0
 0070108,-0.00000075,0.13143700,0.25557124,-0.00000007,0.00000002,0.000
 25678,-0.00000001,-0.00000012,-0.00014718,0.00000169,-0.00000019,-0.00
 308104,0.00000463,0.00000714,0.00141848,-0.00000275,0.00000145,0.00440
 680,0.00000023,-0.00000013,-0.00097721,-0.00000350,0.00000162,0.006244
 96,-0.00000510,-0.00000889,0.00189805,-0.00001788,-0.00001165,-0.02949
 974,-0.00000072,-0.00000065,0.00141105,-0.00000016,0.00000021,-0.00002
 283,0.00000009,-0.00000005,-0.00001770,-0.00000001,0.,0.00005148,0.000
 00003,0.00000065,0.00058555,0.00000031,-0.00000003,0.00000199,-0.00000
 008,0.,-0.00003718,-0.00000002,0.,0.00000922,0.00004779,-0.00000659,-0
 .00000642,-0.00004778,0.00000659,-0.00000645,-0.00000027,-0.00000015,0
 .00023891,0.00000173,-0.00000052,-0.00415447,0.00002171,0.00001145,0.0
 2193614,0.00000302,0.00001161,0.,0.00001816,0.00008078,-0.00000001,0.0
 0006527,-0.00013341,0.00000008,-0.00044519,0.00022025,0.,0.00005627,-0
 .00082792,-0.00000023,-0.00267918,0.00208345,-0.00000257,0.00177965,0.
 00083823,-0.00000027,0.00000863,0.00000484,-0.00000052,0.00016821,-0.0
 0000120,-0.00000003,-0.00083162,-0.00105528,0.00000120,-0.33175541,-0.
 06634068,-0.00008739,-0.00812949,-0.00993831,-0.00000205,0.00035499,-0
 .00075100,0.00000096,-0.00000902,-0.00002934,-0.00000005,0.00002084,-0
 .00015885,0.00000002,-0.00004261,0.00012451,-0.00000002,-0.00000327,-0
 .00000335,0.,-0.00000986,0.00000090,-0.00000224,-0.00000986,0.00000090
 ,0.00000223,-0.00004225,0.00000254,-0.00000002,-0.00001770,-0.00003834
 ,-0.00000001,-0.00000158,-0.00000539,0.00000015,0.34125213,0.00000385,
 0.00001646,0.,0.00001018,0.00009357,-0.00000001,0.00013029,0.00012329,
 0.00000001,0.00028965,0.00000298,0.00000005,-0.00012466,0.00114018,-0.
 00000008,0.00351334,-0.00231191,0.00000191,0.00252527,-0.00591249,0.00
 000142,-0.00203350,0.00063873,-0.00000048,0.00024789,-0.00072972,0.000
 00021,-0.03452880,-0.01242621,-0.00000947,-0.05686339,-0.06520259,-0.0
 0001309,0.01293158,0.01045750,0.00000309,-0.00004385,0.00181715,-0.000
 00064,-0.00003958,0.00006419,0.,-0.00017570,-0.00006392,-0.00000005,0.
 00002153,0.00004016,0.,-0.00000126,-0.00000264,0.,-0.00000707,-0.00000
 146,-0.00000174,-0.00000707,-0.00000146,0.00000174,0.00004855,-0.00000
 239,0.00000001,0.00005064,0.00003580,0.00000001,-0.00019320,0.00003030
 ,-0.00000013,0.07502028,0.07251098,0.,0.,0.00000986,0.,0.00000002,0.00
 001558,0.00000004,-0.00000006,-0.00011695,0.00000008,0.,-0.00061599,-0
 .00000043,-0.00000022,0.00120879,-0.00000284,0.00000139,0.00521529,-0.
 00000021,0.00000118,0.00194862,-0.00000030,0.00000020,0.00182997,-0.00
 000007,0.00000007,0.00026029,0.00000459,0.00000050,-0.00442578,-0.0000
 8815,-0.00001594,-0.02175875,-0.00000497,-0.00000352,0.00177412,0.0000
 0080,-0.00000108,-0.00262164,-0.00000006,0.00000001,0.00016049,0.00000
 004,-0.00000005,0.00000335,-0.00000002,0.00000004,-0.00001820,0.,0.,-0
 .00000031,-0.00000077,-0.00000049,-0.00000092,0.00000076,0.00000049,-0
 .00000092,-0.00000002,0.,0.00001157,-0.00000003,-0.00000001,0.00004630
 ,0.00000019,-0.00000007,-0.00051236,0.00009092,0.00001722,0.01732318,0
 .00001036,-0.00002619,0.,-0.00004772,0.00000255,0.,0.00001512,0.000012
 14,0.,-0.00002853,-0.00009352,0.00000002,-0.00027398,0.00061356,-0.000
 00015,0.00091620,0.00122111,0.00000012,0.00009678,0.00038115,-0.000000
 12,-0.00000590,-0.00004315,0.00000003,0.00000187,0.00000917,0.,0.00007
 446,-0.00063546,0.00000002,0.00069720,0.00118325,-0.00000009,0.0045953
 6,0.00168061,0.00000038,-0.25627810,-0.09648089,-0.00001376,-0.0005613
 5,-0.00045513,-0.00000020,0.00051866,-0.00019999,0.00000021,-0.0001606
 0,0.00008589,-0.00000007,-0.00001897,-0.00001089,0.,-0.00000523,0.0000
 0640,-0.00000242,-0.00000523,0.00000640,0.00000242,-0.00000850,-0.0000
 1759,0.,-0.00000116,0.00000414,0.,-0.00000527,-0.00001595,0.,0.0001879
 7,-0.00059305,0.00000031,0.27667835,0.00000452,0.00003217,0.,0.0000469
 1,0.00013361,-0.00000001,0.00015583,-0.00010087,0.00000007,-0.00030188
 ,0.00006109,-0.00000014,0.00093176,-0.00050625,0.00000034,0.00269328,-
 0.00441415,0.00000215,-0.00189085,-0.00038189,-0.00000078,0.00046448,-
 0.00040049,0.00000016,0.00006806,0.00004295,0.00000002,0.00038931,0.00
 006045,-0.00000008,-0.00099610,0.00169441,-0.00000075,-0.03090650,-0.0
 1489677,-0.00000328,-0.09426461,-0.08979245,-0.00000518,-0.00014946,0.
 00047208,-0.00000004,0.00002672,-0.00024095,0.00000003,-0.00004836,0.0
 0024591,-0.00000003,-0.00000124,-0.00000366,0.,-0.00001782,-0.00000120
 ,-0.00000432,-0.00001783,-0.00000120,0.00000431,-0.00002985,-0.0000056
 3,0.,-0.00010024,-0.00016163,-0.00000001,-0.00001513,-0.00000900,0.,0.
 00067441,-0.00022408,0.00000041,0.10486727,0.10002300,0.,-0.00000003,0
 .00000432,-0.00000005,-0.00000004,-0.00002871,-0.00000004,0.00000003,-
 0.00001322,0.00000011,-0.00000006,-0.00013310,-0.00000035,0.00000041,-
 0.00006335,-0.00000020,0.00000058,0.00111375,-0.00000013,0.00000006,0.
 00038458,0.00000001,0.,-0.00006745,-0.00000003,0.,0.00002337,0.0000001
 7,0.00000011,-0.00039651,0.00000026,-0.00000006,0.00004012,0.00000402,
 0.00000062,-0.00148106,-0.00001362,-0.00000491,-0.04583729,-0.00000058
 ,-0.00000027,0.00038861,0.00000033,-0.00000013,-0.00003324,-0.00000009
 ,0.00000002,0.00004508,-0.00000001,0.,0.00000117,0.00000238,-0.0000005
 7,0.00000018,-0.00000238,0.00000058,0.00000018,0.,0.,0.00000952,0.,0.,
 -0.00000321,0.,0.,0.00000887,-0.00000008,-0.00000002,0.00016595,0.0000
 1473,0.00000606,0.04361561,-0.00000584,0.00002646,-0.00001811,0.000049
 98,0.00011154,0.00002209,0.00009265,-0.00004199,-0.00002956,-0.0001426
 2,-0.00007969,0.00001617,0.00076919,-0.00033142,0.00014371,-0.00033041
 ,-0.00073425,-0.00037266,0.00010997,0.00016439,-0.00003233,0.00001607,
 0.00005682,0.00002688,0.00000442,0.00005935,0.00000352,-0.00020413,-0.
 00027355,-0.00040625,0.00105051,0.00050267,0.00045129,-0.00160762,0.00
 391043,-0.00004451,-0.10762338,0.03692932,0.10332341,-0.00012943,0.000
 31464,-0.00001495,-0.00048659,-0.00007912,-0.00001678,0.00015691,0.000
 06302,0.00004279,0.00001309,0.00000742,-0.00000126,-0.00000322,-0.0000
 0852,-0.00000022,0.00000359,-0.00000491,0.00000114,0.00000957,0.000012
 76,0.00000061,0.00000027,0.00001394,-0.00000037,0.00000025,0.00001363,
 0.00000907,0.00003079,-0.00009083,0.00039434,-0.01319856,0.00921088,0.
 02276775,0.11356167,0.00000121,0.00005538,-0.00000968,0.00008405,0.000
 16828,-0.00001744,0.00019788,-0.00005337,0.00001592,-0.00022448,0.0001
 1534,-0.00002355,0.00014130,-0.00120704,-0.00025091,0.00030167,0.00191
 103,0.00028985,0.00212419,-0.00038606,0.00040397,-0.00019665,0.0002037
 4,0.00004431,0.00002330,-0.00020508,-0.00001095,-0.00076760,-0.0031165
 2,0.00203563,-0.00263517,-0.00059159,-0.00158845,0.01873413,-0.0149627
 9,-0.02522721,0.03803022,-0.06728536,-0.06422910,0.00015339,0.00067875
 ,0.00024507,-0.00057857,-0.00003671,-0.00000933,0.00004714,0.00008256,
 0.00003447,0.00000837,-0.00000072,-0.00000072,-0.00001778,-0.00000616,
 -0.00000167,-0.00001908,-0.00000179,0.00000362,-0.00000572,-0.00000149
 ,-0.00000178,0.00001988,0.00001995,-0.00000117,-0.00002795,0.00000917,
 0.00000227,0.00011023,-0.00004622,-0.00019067,-0.00575235,0.00418872,0
 .01178840,-0.04435418,0.07731099,-0.00000439,0.00005838,0.00000983,0.0
 0010182,0.00013471,-0.00003844,0.00013036,-0.00004350,-0.00000149,-0.0
 0008664,0.00022358,-0.00005141,0.00038453,-0.00083471,-0.00012950,0.00
 043858,0.00011885,0.00054585,0.00040087,-0.00030079,0.00001352,-0.0000
 7233,0.00005381,0.00000390,0.00005682,-0.00011836,-0.00000391,-0.00051
 567,-0.00007723,-0.00039770,-0.00078480,0.00085621,0.00004612,-0.00203
 262,-0.00062543,0.00374628,0.10298000,-0.06348184,-0.20774504,0.000467
 60,0.00068382,0.00032004,-0.00044915,-0.00012316,-0.00001841,0.0001404
 8,0.00019435,0.00004597,0.00001665,0.00000756,0.00000178,-0.00000694,-
 0.00000912,-0.00000481,-0.00001523,-0.00001021,0.00000496,-0.00000154,
 0.00001329,0.00000859,-0.00000692,-0.00000252,-0.00000269,-0.00000707,
 0.00001460,-0.00000286,-0.00002979,-0.00000285,0.00004930,-0.00137983,
 0.00144727,0.00112850,-0.11299927,0.06926459,0.22419479,-0.00000586,0.
 00002652,0.00001811,0.00005009,0.00011165,-0.00002211,0.00009275,-0.00
 004202,0.00002964,-0.00014267,-0.00007946,-0.00001623,0.00076966,-0.00
 033222,-0.00014317,-0.00033001,-0.00073365,0.00037267,0.00011034,0.000
 16413,0.00003261,0.00001600,0.00005687,-0.00002687,0.00000450,0.000059
 21,-0.00000354,-0.00020486,-0.00027370,0.00040582,0.00105070,0.0005025
 8,-0.00045099,-0.00160847,0.00390949,0.00004206,-0.10757971,0.03689482
 ,-0.10331364,-0.00012856,0.00031541,0.00001468,-0.00048722,-0.00007907
 ,0.00001641,0.00015710,0.00006308,-0.00004270,0.00001310,0.00000742,0.
 00000127,0.00000359,-0.00000492,-0.00000114,-0.00000323,-0.00000853,0.
 00000023,0.00000958,0.00001277,-0.00000061,0.00000026,0.00001394,0.000
 00036,0.00000025,0.00001364,-0.00000908,0.00003109,-0.00009106,-0.0003
 9421,-0.01319322,0.00920645,-0.02277225,0.00786288,-0.00539741,0.01327
 449,0.11351192,0.00000120,0.00005540,0.00000968,0.00008410,0.00016821,
 0.00001744,0.00019782,-0.00005337,-0.00001579,-0.00022448,0.00011533,0
 .00002338,0.00014133,-0.00120763,0.00025134,0.00030089,0.00191173,-0.0
 0029032,0.00212426,-0.00038583,-0.00040234,-0.00019661,0.00020382,-0.0
 0004445,0.00002325,-0.00020501,0.00001102,-0.00076566,-0.00311681,-0.0
 0203527,-0.00263601,-0.00059339,0.00158712,0.01872962,-0.01495563,0.02
 523718,0.03799397,-0.06725881,0.06420651,0.00015445,0.00067915,-0.0002
 4541,-0.00057910,-0.00003618,0.00000891,0.00004723,0.00008223,-0.00003
 445,0.00000838,-0.00000072,0.00000073,-0.00001906,-0.00000180,-0.00000
 362,-0.00001777,-0.00000616,0.00000166,-0.00000571,-0.00000149,0.00000
 177,0.00001989,0.00001998,0.00000118,-0.00002795,0.00000918,-0.0000023
 0,0.00011015,-0.00004620,0.00019057,-0.00574948,0.00418583,-0.01179074
 ,-0.00539878,0.00315700,-0.00744131,-0.04431594,0.07728117,0.00000439,
 -0.00005841,0.00000985,-0.00010187,-0.00013472,-0.00003844,-0.00013038
 ,0.00004351,-0.00000158,0.00008667,-0.00022378,-0.00005132,-0.00038438
 ,0.00083522,-0.00012999,-0.00043891,-0.00011957,0.00054614,-0.00040136
 ,0.00030104,0.00001330,0.00007239,-0.00005388,0.00000395,-0.00005683,0
 .00011846,-0.00000399,0.00051616,0.00007761,-0.00039661,0.00078534,-0.
 00085567,0.00004593,0.00202706,0.00062920,0.00374035,-0.10296965,0.063
 46138,-0.20782402,-0.00046841,-0.00068414,0.00031988,0.00044946,0.0001
 2290,-0.00001806,-0.00014057,-0.00019428,0.00004583,-0.00001666,-0.000
 00756,0.00000177,0.00001523,0.00001022,0.00000496,0.00000695,0.0000091
 1,-0.00000481,0.00000154,-0.00001330,0.00000860,0.00000692,0.00000251,
 -0.00000269,0.00000708,-0.00001460,-0.00000284,0.00002973,0.00000289,0
 .00004917,0.00137841,-0.00144618,0.00112733,-0.01326651,0.00743454,-0.
 02172319,0.11298818,-0.06924250,0.22428048\\0.00001648,-0.00005420,0.0
 0000041,-0.00002180,-0.00000074,0.00000371,0.00008854,0.00000475,0.000
 00051,-0.00008442,-0.00011042,0.00000081,0.00009127,0.00017728,-0.0000
 0314,0.00002611,-0.00023028,-0.00000382,-0.00009889,0.00022303,0.00000
 660,0.00002080,-0.00000492,-0.00000048,0.00001753,0.00004856,0.0000009
 5,0.00007414,-0.00022506,-0.00000404,-0.00006490,0.00019678,0.00000019
 ,0.00005031,0.00002249,0.00000318,-0.00000871,0.00001288,0.00000024,-0
 .00009753,-0.00007501,0.00000396,0.00009173,0.00000966,-0.00001446,-0.
 00004553,0.00002288,0.00000594,0.00000750,0.00002182,0.00000021,0.0000
 0269,0.00000393,0.00000325,0.00000185,0.00000369,-0.00000295,-0.000028
 21,0.00002377,-0.00000073,-0.00001726,0.00000325,-0.00000019,-0.000001
 74,0.00000672,-0.00000007,-0.00001023,-0.00005195,-0.00000008,-0.00001
 607,-0.00000969,-0.00000028,0.00000338,-0.00000944,-0.00000655,0.00000
 296,-0.00000978,0.00000682\\\@


 Ideas are like rabbits. You get a couple and learn
 how to handle them, and pretty soon you have a dozen.
                                    -- John Steinbeck
 Job cpu time:  0 days  0 hours 27 minutes  0.7 seconds.
 File lengths (MBytes):  RWF=    256 Int=      0 D2E=      0 Chk=      7 Scr=      1
 Normal termination of Gaussian 09 at Wed Aug 21 17:01:38 2019.
