 Entering Gaussian System, Link 0=g09
 Initial command:
 /opt/g09/l1.exe /opt/g09/Gau-28089.inp -scrdir=/opt/g09/
 Entering Link 1 = /opt/g09/l1.exe PID=     28091.
  
 Copyright (c) 1988,1990,1992,1993,1995,1998,2003,2009,2011,
            Gaussian, Inc.  All Rights Reserved.
  
 This is part of the Gaussian(R) 09 program.  It is based on
 the Gaussian(R) 03 system (copyright 2003, Gaussian, Inc.),
 the Gaussian(R) 98 system (copyright 1998, Gaussian, Inc.),
 the Gaussian(R) 94 system (copyright 1995, Gaussian, Inc.),
 the Gaussian 92(TM) system (copyright 1992, Gaussian, Inc.),
 the Gaussian 90(TM) system (copyright 1990, Gaussian, Inc.),
 the Gaussian 88(TM) system (copyright 1988, Gaussian, Inc.),
 the Gaussian 86(TM) system (copyright 1986, Carnegie Mellon
 University), and the Gaussian 82(TM) system (copyright 1983,
 Carnegie Mellon University). Gaussian is a federally registered
 trademark of Gaussian, Inc.
  
 This software contains proprietary and confidential information,
 including trade secrets, belonging to Gaussian, Inc.
  
 This software is provided under written license and may be
 used, copied, transmitted, or stored only in accord with that
 written license.
  
 The following legend is applicable only to US Government
 contracts under FAR:
  
                    RESTRICTED RIGHTS LEGEND
  
 Use, reproduction and disclosure by the US Government is
 subject to restrictions as set forth in subparagraphs (a)
 and (c) of the Commercial Computer Software - Restricted
 Rights clause in FAR 52.227-19.
  
 Gaussian, Inc.
 340 Quinnipiac St., Bldg. 40, Wallingford CT 06492
  
  
 ---------------------------------------------------------------
 Warning -- This program may not be used in any manner that
 competes with the business of Gaussian, Inc. or will provide
 assistance to any competitor of Gaussian, Inc.  The licensee
 of this program is prohibited from giving any competitor of
 Gaussian, Inc. access to this program.  By using this program,
 the user acknowledges that Gaussian, Inc. is engaged in the
 business of creating and licensing software in the field of
 computational chemistry and represents and warrants to the
 licensee that it is not a competitor of Gaussian, Inc. and that
 it will not use this program in any manner prohibited above.
 ---------------------------------------------------------------
  

 Cite this work as:
 Gaussian 09, Revision C.01,
 M. J. Frisch, G. W. Trucks, H. B. Schlegel, G. E. Scuseria, 
 M. A. Robb, J. R. Cheeseman, G. Scalmani, V. Barone, B. Mennucci, 
 G. A. Petersson, H. Nakatsuji, M. Caricato, X. Li, H. P. Hratchian, 
 A. F. Izmaylov, J. Bloino, G. Zheng, J. L. Sonnenberg, M. Hada, 
 M. Ehara, K. Toyota, R. Fukuda, J. Hasegawa, M. Ishida, T. Nakajima, 
 Y. Honda, O. Kitao, H. Nakai, T. Vreven, J. A. Montgomery, Jr., 
 J. E. Peralta, F. Ogliaro, M. Bearpark, J. J. Heyd, E. Brothers, 
 K. N. Kudin, V. N. Staroverov, T. Keith, R. Kobayashi, J. Normand, 
 K. Raghavachari, A. Rendell, J. C. Burant, S. S. Iyengar, J. Tomasi, 
 M. Cossi, N. Rega, J. M. Millam, M. Klene, J. E. Knox, J. B. Cross, 
 V. Bakken, C. Adamo, J. Jaramillo, R. Gomperts, R. E. Stratmann, 
 O. Yazyev, A. J. Austin, R. Cammi, C. Pomelli, J. W. Ochterski, 
 R. L. Martin, K. Morokuma, V. G. Zakrzewski, G. A. Voth, 
 P. Salvador, J. J. Dannenberg, S. Dapprich, A. D. Daniels, 
 O. Farkas, J. B. Foresman, J. V. Ortiz, J. Cioslowski, 
 and D. J. Fox, Gaussian, Inc., Wallingford CT, 2010.
 
 ******************************************
 Gaussian 09:  EM64L-G09RevC.01 23-Sep-2011
                21-Aug-2019 
 ******************************************
 %nprocs=8
 Will use up to    8 processors via shared memory.
 %mem=16GB
 -------------------------
 #opt freq blyp/6-31g(d,p)
 -------------------------
 1/14=-1,18=20,19=15,26=3,38=1/1,3;
 2/9=110,12=2,17=6,18=5,40=1/2;
 3/5=1,6=6,7=101,11=2,16=1,25=1,30=1,71=1,74=402/1,2,3;
 4//1;
 5/5=2,38=5/2;
 6/7=2,8=2,9=2,10=2,28=1/1;
 7//1,2,3,16;
 1/14=-1,18=20,19=15/3(2);
 2/9=110/2;
 99//99;
 2/9=110/2;
 3/5=1,6=6,7=101,11=2,16=1,25=1,30=1,71=1,74=402/1,2,3;
 4/5=5,16=3/1;
 5/5=2,38=5/2;
 7//1,2,3,16;
 1/14=-1,18=20,19=15/3(-5);
 2/9=110/2;
 6/7=2,8=2,9=2,10=2,19=2,28=1/1;
 99/9=1/99;
 -----------------------------------------------
 molecule_/home/mateus/github/db_singletoxygen 1
 -----------------------------------------------
 Charge =  0 Multiplicity = 1
 Symbolic Z-Matrix:
 C                    -0.27805  -1.99458   0.0016 
 C                     1.11365  -1.90578   0.00093 
 C                     1.66064  -0.62553   0.00011 
 C                     0.91666   0.55268  -0.00015 
 C                     1.88474   1.59905   0.00033 
 C                     3.12301   0.99314   0.00003 
 O                     2.99284  -0.35685  -0.00015 
 C                    -0.49084   0.43098  -0.00025 
 C                    -1.07408  -0.84743   0.0008 
 C                    -2.51918  -0.9858    0.00185 
 C                    -3.29132   0.10138   0.00124 
 C                    -2.72894   1.46081  -0.00025 
 O                    -3.47548   2.43628  -0.00062 
 O                    -1.33933   1.57487  -0.00084 
 H                    -0.73924  -2.97958   0.00308 
 H                     1.741    -2.78837   0.00164 
 H                     1.7119    2.66588   0.00104 
 H                     4.14228   1.35636   0.00012 
 H                    -2.95003  -1.98112   0.00354 
 H                    -4.37196   0.02126   0.00224 
 

 GradGradGradGradGradGradGradGradGradGradGradGradGradGradGradGradGradGrad
 Berny optimization.
 Initialization pass.
                           ----------------------------
                           !    Initial Parameters    !
                           ! (Angstroms and Degrees)  !
 --------------------------                            --------------------------
 ! Name  Definition              Value          Derivative Info.                !
 --------------------------------------------------------------------------------
 ! R1    R(1,2)                  1.3945         estimate D2E/DX2                !
 ! R2    R(1,9)                  1.3963         estimate D2E/DX2                !
 ! R3    R(1,15)                 1.0876         estimate D2E/DX2                !
 ! R4    R(2,3)                  1.3922         estimate D2E/DX2                !
 ! R5    R(2,16)                 1.0828         estimate D2E/DX2                !
 ! R6    R(3,4)                  1.3934         estimate D2E/DX2                !
 ! R7    R(3,7)                  1.359          estimate D2E/DX2                !
 ! R8    R(4,5)                  1.4255         estimate D2E/DX2                !
 ! R9    R(4,8)                  1.4128         estimate D2E/DX2                !
 ! R10   R(5,6)                  1.3786         estimate D2E/DX2                !
 ! R11   R(5,17)                 1.0807         estimate D2E/DX2                !
 ! R12   R(6,7)                  1.3563         estimate D2E/DX2                !
 ! R13   R(6,18)                 1.0821         estimate D2E/DX2                !
 ! R14   R(8,9)                  1.4052         estimate D2E/DX2                !
 ! R15   R(8,14)                 1.4242         estimate D2E/DX2                !
 ! R16   R(9,10)                 1.4517         estimate D2E/DX2                !
 ! R17   R(10,11)                1.3335         estimate D2E/DX2                !
 ! R18   R(10,19)                1.0846         estimate D2E/DX2                !
 ! R19   R(11,12)                1.4712         estimate D2E/DX2                !
 ! R20   R(11,20)                1.0836         estimate D2E/DX2                !
 ! R21   R(12,13)                1.2284         estimate D2E/DX2                !
 ! R22   R(12,14)                1.3943         estimate D2E/DX2                !
 ! A1    A(2,1,9)              121.1066         estimate D2E/DX2                !
 ! A2    A(2,1,15)             118.7405         estimate D2E/DX2                !
 ! A3    A(9,1,15)             120.1529         estimate D2E/DX2                !
 ! A4    A(1,2,3)              116.7856         estimate D2E/DX2                !
 ! A5    A(1,2,16)             121.7545         estimate D2E/DX2                !
 ! A6    A(3,2,16)             121.4599         estimate D2E/DX2                !
 ! A7    A(2,3,4)              124.5949         estimate D2E/DX2                !
 ! A8    A(2,3,7)              124.5373         estimate D2E/DX2                !
 ! A9    A(4,3,7)              110.8678         estimate D2E/DX2                !
 ! A10   A(3,4,5)              104.9553         estimate D2E/DX2                !
 ! A11   A(3,4,8)              117.3285         estimate D2E/DX2                !
 ! A12   A(5,4,8)              137.7162         estimate D2E/DX2                !
 ! A13   A(4,5,6)              106.7009         estimate D2E/DX2                !
 ! A14   A(4,5,17)             128.023          estimate D2E/DX2                !
 ! A15   A(6,5,17)             125.2761         estimate D2E/DX2                !
 ! A16   A(5,6,7)              110.5658         estimate D2E/DX2                !
 ! A17   A(5,6,18)             134.3129         estimate D2E/DX2                !
 ! A18   A(7,6,18)             115.1213         estimate D2E/DX2                !
 ! A19   A(3,7,6)              106.9101         estimate D2E/DX2                !
 ! A20   A(4,8,9)              119.4654         estimate D2E/DX2                !
 ! A21   A(4,8,14)             121.6247         estimate D2E/DX2                !
 ! A22   A(9,8,14)             118.91           estimate D2E/DX2                !
 ! A23   A(1,9,8)              120.7189         estimate D2E/DX2                !
 ! A24   A(1,9,10)             119.288          estimate D2E/DX2                !
 ! A25   A(8,9,10)             119.993          estimate D2E/DX2                !
 ! A26   A(9,10,11)            119.9137         estimate D2E/DX2                !
 ! A27   A(9,10,19)            118.8761         estimate D2E/DX2                !
 ! A28   A(11,10,19)           121.2101         estimate D2E/DX2                !
 ! A29   A(10,11,12)           122.1425         estimate D2E/DX2                !
 ! A30   A(10,11,20)           121.143          estimate D2E/DX2                !
 ! A31   A(12,11,20)           116.7146         estimate D2E/DX2                !
 ! A32   A(11,12,13)           120.0984         estimate D2E/DX2                !
 ! A33   A(11,12,14)           117.1667         estimate D2E/DX2                !
 ! A34   A(13,12,14)           122.7349         estimate D2E/DX2                !
 ! A35   A(8,14,12)            121.8741         estimate D2E/DX2                !
 ! D1    D(9,1,2,3)              0.031          estimate D2E/DX2                !
 ! D2    D(9,1,2,16)           179.9937         estimate D2E/DX2                !
 ! D3    D(15,1,2,3)          -179.9501         estimate D2E/DX2                !
 ! D4    D(15,1,2,16)            0.0126         estimate D2E/DX2                !
 ! D5    D(2,1,9,8)             -0.0217         estimate D2E/DX2                !
 ! D6    D(2,1,9,10)          -179.986          estimate D2E/DX2                !
 ! D7    D(15,1,9,8)           179.9592         estimate D2E/DX2                !
 ! D8    D(15,1,9,10)           -0.0052         estimate D2E/DX2                !
 ! D9    D(1,2,3,4)             -0.0035         estimate D2E/DX2                !
 ! D10   D(1,2,3,7)            179.9763         estimate D2E/DX2                !
 ! D11   D(16,2,3,4)          -179.9663         estimate D2E/DX2                !
 ! D12   D(16,2,3,7)             0.0135         estimate D2E/DX2                !
 ! D13   D(2,3,4,5)            179.9436         estimate D2E/DX2                !
 ! D14   D(2,3,4,8)             -0.0327         estimate D2E/DX2                !
 ! D15   D(7,3,4,5)             -0.0386         estimate D2E/DX2                !
 ! D16   D(7,3,4,8)            179.9852         estimate D2E/DX2                !
 ! D17   D(2,3,7,6)           -179.9553         estimate D2E/DX2                !
 ! D18   D(4,3,7,6)              0.0269         estimate D2E/DX2                !
 ! D19   D(3,4,5,6)              0.035          estimate D2E/DX2                !
 ! D20   D(3,4,5,17)          -179.9511         estimate D2E/DX2                !
 ! D21   D(8,4,5,6)           -179.9964         estimate D2E/DX2                !
 ! D22   D(8,4,5,17)             0.0175         estimate D2E/DX2                !
 ! D23   D(3,4,8,9)              0.0415         estimate D2E/DX2                !
 ! D24   D(3,4,8,14)          -179.9846         estimate D2E/DX2                !
 ! D25   D(5,4,8,9)           -179.9243         estimate D2E/DX2                !
 ! D26   D(5,4,8,14)             0.0496         estimate D2E/DX2                !
 ! D27   D(4,5,6,7)             -0.0204         estimate D2E/DX2                !
 ! D28   D(4,5,6,18)           179.9949         estimate D2E/DX2                !
 ! D29   D(17,5,6,7)           179.9662         estimate D2E/DX2                !
 ! D30   D(17,5,6,18)           -0.0185         estimate D2E/DX2                !
 ! D31   D(5,6,7,3)             -0.0033         estimate D2E/DX2                !
 ! D32   D(18,6,7,3)           179.9845         estimate D2E/DX2                !
 ! D33   D(4,8,9,1)             -0.0161         estimate D2E/DX2                !
 ! D34   D(4,8,9,10)           179.948          estimate D2E/DX2                !
 ! D35   D(14,8,9,1)          -179.9907         estimate D2E/DX2                !
 ! D36   D(14,8,9,10)           -0.0266         estimate D2E/DX2                !
 ! D37   D(4,8,14,12)         -179.9665         estimate D2E/DX2                !
 ! D38   D(9,8,14,12)            0.0075         estimate D2E/DX2                !
 ! D39   D(1,9,10,11)          179.9932         estimate D2E/DX2                !
 ! D40   D(1,9,10,19)            0.0182         estimate D2E/DX2                !
 ! D41   D(8,9,10,11)            0.0286         estimate D2E/DX2                !
 ! D42   D(8,9,10,19)         -179.9464         estimate D2E/DX2                !
 ! D43   D(9,10,11,12)          -0.0108         estimate D2E/DX2                !
 ! D44   D(9,10,11,20)        -179.9853         estimate D2E/DX2                !
 ! D45   D(19,10,11,12)        179.9636         estimate D2E/DX2                !
 ! D46   D(19,10,11,20)         -0.0109         estimate D2E/DX2                !
 ! D47   D(10,11,12,13)       -179.9918         estimate D2E/DX2                !
 ! D48   D(10,11,12,14)         -0.008          estimate D2E/DX2                !
 ! D49   D(20,11,12,13)         -0.0163         estimate D2E/DX2                !
 ! D50   D(20,11,12,14)        179.9675         estimate D2E/DX2                !
 ! D51   D(11,12,14,8)           0.0098         estimate D2E/DX2                !
 ! D52   D(13,12,14,8)         179.9931         estimate D2E/DX2                !
 --------------------------------------------------------------------------------
 Trust Radius=3.00D-01 FncErr=1.00D-07 GrdErr=1.00D-06
 Number of steps in this run=    119 maximum allowed number of steps=    120.
 GradGradGradGradGradGradGradGradGradGradGradGradGradGradGradGradGradGrad

                          Input orientation:                          
 ---------------------------------------------------------------------
 Center     Atomic      Atomic             Coordinates (Angstroms)
 Number     Number       Type             X           Y           Z
 ---------------------------------------------------------------------
      1          6           0       -0.278050   -1.994580    0.001600
      2          6           0        1.113650   -1.905780    0.000930
      3          6           0        1.660640   -0.625530    0.000110
      4          6           0        0.916660    0.552680   -0.000150
      5          6           0        1.884740    1.599050    0.000330
      6          6           0        3.123010    0.993140    0.000030
      7          8           0        2.992840   -0.356850   -0.000150
      8          6           0       -0.490840    0.430980   -0.000250
      9          6           0       -1.074080   -0.847430    0.000800
     10          6           0       -2.519180   -0.985800    0.001850
     11          6           0       -3.291320    0.101380    0.001240
     12          6           0       -2.728940    1.460810   -0.000250
     13          8           0       -3.475480    2.436280   -0.000620
     14          8           0       -1.339330    1.574870   -0.000840
     15          1           0       -0.739240   -2.979580    0.003080
     16          1           0        1.741000   -2.788370    0.001640
     17          1           0        1.711900    2.665880    0.001040
     18          1           0        4.142280    1.356360    0.000120
     19          1           0       -2.950030   -1.981120    0.003540
     20          1           0       -4.371960    0.021260    0.002240
 ---------------------------------------------------------------------
                    Distance matrix (angstroms):
                    1          2          3          4          5
     1  C    0.000000
     2  C    1.394530   0.000000
     3  C    2.373356   1.392206   0.000000
     4  C    2.813515   2.466340   1.393444   0.000000
     5  C    4.194263   3.588651   2.235839   1.425507   0.000000
     6  C    4.526995   3.527218   2.181426   2.249886   1.378564
     7  O    3.657989   2.435270   1.359024   2.266665   2.247984
     8  C    2.434877   2.834579   2.396890   1.412752   2.647219
     9  C    1.396287   2.430281   2.743708   2.433794   3.839255
    10  C    2.457702   3.747508   4.195318   3.764561   5.106463
    11  C    3.670537   4.840708   5.005028   4.232112   5.388378
    12  C    4.236341   5.108760   4.860167   3.757007   4.615751
    13  O    5.464072   6.317721   5.979499   4.779000   5.425211
    14  O    3.723882   4.258173   3.720428   2.476765   3.224161
    15  H    1.087623   2.141554   3.361694   3.901138   5.277228
    16  H    2.169485   1.082836   2.164333   3.441243   4.389774
    17  H    5.067523   4.610638   3.291809   2.257880   1.080741
    18  H    5.546902   4.451310   3.175913   3.324233   2.270547
    19  H    2.672015   4.064379   4.805821   4.622926   6.016031
    20  H    4.563300   5.814241   6.067174   5.315253   6.452575
                    6          7          8          9         10
     6  C    0.000000
     7  O    1.356251   0.000000
     8  C    3.657313   3.571653   0.000000
     9  C    4.582932   4.096402   1.405170   0.000000
    10  C    5.979173   5.547788   2.474153   1.451710   0.000000
    11  C    6.476022   6.300845   2.819810   2.411720   1.333477
    12  C    5.870608   6.003553   2.463664   2.840165   2.455586
    13  O    6.754460   7.045618   3.595734   4.068105   3.553188
    14  O    4.500099   4.743336   1.424226   2.436780   2.819412
    15  H    5.540712   4.561485   3.419595   2.158283   2.672704
    16  H    4.026136   2.734848   3.917311   3.419346   4.625840
    17  H    2.188445   3.282942   3.137968   4.483863   5.588990
    18  H    1.082054   2.063080   4.724630   5.662782   7.061216
    19  H    6.762252   6.160842   3.444685   2.191905   1.084572
    20  H    7.557720   7.374500   3.902687   3.410372   2.108783
                   11         12         13         14         15
    11  C    0.000000
    12  C    1.471164   0.000000
    13  O    2.342152   1.228358   0.000000
    14  O    2.445699   1.394283   2.303294   0.000000
    15  H    4.000679   4.865797   6.067830   4.593815   0.000000
    16  H    5.803008   6.167325   7.382996   5.341002   2.487600
    17  H    5.622177   4.601441   5.192459   3.240418   6.154617
    18  H    7.538792   6.872014   7.693926   5.485964   6.529136
    19  H    2.110282   3.449026   4.448543   3.903772   2.425802
    20  H    1.083606   2.184451   2.576045   3.407427   4.711868
                   16         17         18         19         20
    16  H    0.000000
    17  H    5.454328   0.000000
    18  H    4.790087   2.760723   0.000000
    19  H    4.759981   6.582416   7.838345   0.000000
    20  H    6.727726   6.633805   8.618282   2.455893   0.000000
 Stoichiometry    C11H6O3
 Framework group  C1[X(C11H6O3)]
 Deg. of freedom    54
 Full point group                 C1      NOp   1
 Largest Abelian subgroup         C1      NOp   1
 Largest concise Abelian subgroup C1      NOp   1
                         Standard orientation:                         
 ---------------------------------------------------------------------
 Center     Atomic      Atomic             Coordinates (Angstroms)
 Number     Number       Type             X           Y           Z
 ---------------------------------------------------------------------
      1          6           0       -0.379828    2.150969    0.000088
      2          6           0       -1.732412    1.811514   -0.000367
      3          6           0       -2.038418    0.453354   -0.000456
      4          6           0       -1.093300   -0.570579   -0.000196
      5          6           0       -1.855799   -1.775014    0.000945
      6          6           0       -3.183347   -1.403459    0.000481
      7          8           0       -3.299899   -0.052225   -0.000415
      8          6           0        0.268862   -0.195906   -0.000530
      9          6           0        0.610851    1.167012   -0.000214
     10          6           0        2.006972    1.564891    0.000589
     11          6           0        2.963292    0.635583    0.000449
     12          6           0        2.656496   -0.803235   -0.000268
     13          8           0        3.567401   -1.627319   -0.000223
     14          8           0        1.310543   -1.167154   -0.000630
     15          1           0       -0.104714    3.203222    0.001001
     16          1           0       -2.509274    2.565848   -0.000038
     17          1           0       -1.492549   -2.792879    0.002187
     18          1           0       -4.119950   -1.945322    0.000883
     19          1           0        2.250378    2.621796    0.001710
     20          1           0        4.011536    0.910150    0.001276
 ---------------------------------------------------------------------
 Rotational constants (GHZ):      1.5712088      0.5257928      0.3939579
 Standard basis: 6-31G(d,p) (6D, 7F)
 There are   240 symmetry adapted basis functions of A   symmetry.
 Integral buffers will be    131072 words long.
 Raffenetti 2 integral format.
 Two-electron integral symmetry is turned on.
   240 basis functions,   434 primitive gaussians,   240 cartesian basis functions
    48 alpha electrons       48 beta electrons
       nuclear repulsion energy       813.0826107721 Hartrees.
 NAtoms=   20 NActive=   20 NUniq=   20 SFac= 1.00D+00 NAtFMM=   60 NAOKFM=F Big=F
 One-electron integrals computed using PRISM.
 NBasis=   240 RedAO= T  NBF=   240
 NBsUse=   240 1.00D-06 NBFU=   240
 Harris functional with IExCor=  402 diagonalized for initial guess.
 ExpMin= 1.61D-01 ExpMax= 5.48D+03 ExpMxC= 8.25D+02 IAcc=1 IRadAn=         1 AccDes= 0.00D+00
 HarFok:  IExCor=  402 AccDes= 0.00D+00 IRadAn=         1 IDoV= 1
 ScaDFX=  1.000000  1.000000  1.000000  1.000000
 FoFCou: FMM=F IPFlag=           0 FMFlag=      100000 FMFlg1=           0
         NFxFlg=           0 DoJE=T BraDBF=F KetDBF=T FulRan=T
         Omega=  0.000000  0.000000  1.000000  0.000000  0.000000 ICntrl=     500 IOpCl=  0
         NMat0=    1 NMatS0=    1 NMatT0=    0 NMatD0=    1 NMtDS0=    0 NMtDT0=    0
         I1Cent=           4 NGrid=           0.
 Petite list used in FoFCou.
 Initial guess orbital symmetries:
       Occupied  (A) (A) (A) (A) (A) (A) (A) (A) (A) (A) (A) (A)
                 (A) (A) (A) (A) (A) (A) (A) (A) (A) (A) (A) (A)
                 (A) (A) (A) (A) (A) (A) (A) (A) (A) (A) (A) (A)
                 (A) (A) (A) (A) (A) (A) (A) (A) (A) (A) (A) (A)
       Virtual   (A) (A) (A) (A) (A) (A) (A) (A) (A) (A) (A) (A)
                 (A) (A) (A) (A) (A) (A) (A) (A) (A) (A) (A) (A)
                 (A) (A) (A) (A) (A) (A) (A) (A) (A) (A) (A) (A)
                 (A) (A) (A) (A) (A) (A) (A) (A) (A) (A) (A) (A)
                 (A) (A) (A) (A) (A) (A) (A) (A) (A) (A) (A) (A)
                 (A) (A) (A) (A) (A) (A) (A) (A) (A) (A) (A) (A)
                 (A) (A) (A) (A) (A) (A) (A) (A) (A) (A) (A) (A)
                 (A) (A) (A) (A) (A) (A) (A) (A) (A) (A) (A) (A)
                 (A) (A) (A) (A) (A) (A) (A) (A) (A) (A) (A) (A)
                 (A) (A) (A) (A) (A) (A) (A) (A) (A) (A) (A) (A)
                 (A) (A) (A) (A) (A) (A) (A) (A) (A) (A) (A) (A)
                 (A) (A) (A) (A) (A) (A) (A) (A) (A) (A) (A) (A)
                 (A) (A) (A) (A) (A) (A) (A) (A) (A) (A) (A) (A)
                 (A) (A) (A) (A) (A) (A) (A) (A) (A) (A) (A) (A)
                 (A) (A) (A) (A) (A) (A) (A) (A) (A) (A) (A) (A)
                 (A) (A) (A) (A) (A) (A) (A) (A) (A) (A) (A) (A)
 The electronic state of the initial guess is 1-A.
 Requested convergence on RMS density matrix=1.00D-08 within 128 cycles.
 Requested convergence on MAX density matrix=1.00D-06.
 Requested convergence on             energy=1.00D-06.
 No special actions if energy rises.
 Keep J ints in memory in canonical form, NReq=425559600.
 Integral accuracy reduced to 1.0D-05 until final iterations.
 EnCoef did     2 forward-backward iterations
 Initial convergence to 1.0D-05 achieved.  Increase integral accuracy.
 SCF Done:  E(RB-LYP) =  -648.254364990     A.U. after   18 cycles
             Convg  =    0.4558D-08             -V/T =  2.0089

 **********************************************************************

            Population analysis using the SCF density.

 **********************************************************************

 Orbital symmetries:
       Occupied  (A) (A) (A) (A) (A) (A) (A) (A) (A) (A) (A) (A)
                 (A) (A) (A) (A) (A) (A) (A) (A) (A) (A) (A) (A)
                 (A) (A) (A) (A) (A) (A) (A) (A) (A) (A) (A) (A)
                 (A) (A) (A) (A) (A) (A) (A) (A) (A) (A) (A) (A)
       Virtual   (A) (A) (A) (A) (A) (A) (A) (A) (A) (A) (A) (A)
                 (A) (A) (A) (A) (A) (A) (A) (A) (A) (A) (A) (A)
                 (A) (A) (A) (A) (A) (A) (A) (A) (A) (A) (A) (A)
                 (A) (A) (A) (A) (A) (A) (A) (A) (A) (A) (A) (A)
                 (A) (A) (A) (A) (A) (A) (A) (A) (A) (A) (A) (A)
                 (A) (A) (A) (A) (A) (A) (A) (A) (A) (A) (A) (A)
                 (A) (A) (A) (A) (A) (A) (A) (A) (A) (A) (A) (A)
                 (A) (A) (A) (A) (A) (A) (A) (A) (A) (A) (A) (A)
                 (A) (A) (A) (A) (A) (A) (A) (A) (A) (A) (A) (A)
                 (A) (A) (A) (A) (A) (A) (A) (A) (A) (A) (A) (A)
                 (A) (A) (A) (A) (A) (A) (A) (A) (A) (A) (A) (A)
                 (A) (A) (A) (A) (A) (A) (A) (A) (A) (A) (A) (A)
                 (A) (A) (A) (A) (A) (A) (A) (A) (A) (A) (A) (A)
                 (A) (A) (A) (A) (A) (A) (A) (A) (A) (A) (A) (A)
                 (A) (A) (A) (A) (A) (A) (A) (A) (A) (A) (A) (A)
                 (A) (A) (A) (A) (A) (A) (A) (A) (A) (A) (A) (A)
 The electronic state is 1-A.
 Alpha  occ. eigenvalues --  -18.87732 -18.86014 -18.77361 -10.04460 -10.01099
 Alpha  occ. eigenvalues --   -9.99436  -9.99425  -9.95311  -9.95161  -9.95040
 Alpha  occ. eigenvalues --   -9.94488  -9.94396  -9.94172  -9.93868  -1.03136
 Alpha  occ. eigenvalues --   -0.99315  -0.91197  -0.79284  -0.74489  -0.72437
 Alpha  occ. eigenvalues --   -0.68178  -0.66785  -0.59961  -0.57771  -0.55183
 Alpha  occ. eigenvalues --   -0.54371  -0.49689  -0.48096  -0.45517  -0.43889
 Alpha  occ. eigenvalues --   -0.41880  -0.41797  -0.39628  -0.39615  -0.38220
 Alpha  occ. eigenvalues --   -0.37073  -0.36292  -0.34946  -0.33607  -0.32884
 Alpha  occ. eigenvalues --   -0.32247  -0.29747  -0.29499  -0.26453  -0.25597
 Alpha  occ. eigenvalues --   -0.20954  -0.20568  -0.19144
 Alpha virt. eigenvalues --   -0.07449  -0.05520  -0.01548   0.01564   0.05738
 Alpha virt. eigenvalues --    0.06169   0.06767   0.09278   0.10257   0.11010
 Alpha virt. eigenvalues --    0.12659   0.14085   0.14135   0.14779   0.17783
 Alpha virt. eigenvalues --    0.18467   0.23128   0.24786   0.25041   0.26545
 Alpha virt. eigenvalues --    0.30555   0.30822   0.32080   0.36617   0.40324
 Alpha virt. eigenvalues --    0.41782   0.42685   0.44170   0.44897   0.47197
 Alpha virt. eigenvalues --    0.47373   0.47949   0.49842   0.50261   0.51541
 Alpha virt. eigenvalues --    0.52627   0.53256   0.53816   0.54446   0.54583
 Alpha virt. eigenvalues --    0.56138   0.58017   0.58068   0.59280   0.59286
 Alpha virt. eigenvalues --    0.59833   0.61217   0.63921   0.64646   0.68436
 Alpha virt. eigenvalues --    0.71900   0.73392   0.74233   0.75805   0.76755
 Alpha virt. eigenvalues --    0.77167   0.79106   0.79294   0.82237   0.84588
 Alpha virt. eigenvalues --    0.85793   0.87012   0.87905   0.91189   0.92005
 Alpha virt. eigenvalues --    0.92161   0.94422   0.94918   0.95529   0.98854
 Alpha virt. eigenvalues --    1.01076   1.01813   1.05058   1.06930   1.11946
 Alpha virt. eigenvalues --    1.12334   1.13564   1.14512   1.17118   1.22019
 Alpha virt. eigenvalues --    1.23024   1.24655   1.26525   1.27240   1.30804
 Alpha virt. eigenvalues --    1.31275   1.31493   1.32349   1.33951   1.35645
 Alpha virt. eigenvalues --    1.36041   1.38119   1.40553   1.43014   1.49319
 Alpha virt. eigenvalues --    1.52182   1.54007   1.56089   1.60484   1.65169
 Alpha virt. eigenvalues --    1.68800   1.69076   1.71702   1.72494   1.74759
 Alpha virt. eigenvalues --    1.74771   1.76452   1.76580   1.77915   1.79051
 Alpha virt. eigenvalues --    1.80939   1.83566   1.84679   1.85007   1.85539
 Alpha virt. eigenvalues --    1.88452   1.89616   1.91224   1.93882   1.94799
 Alpha virt. eigenvalues --    1.96678   1.98916   2.00372   2.04340   2.06461
 Alpha virt. eigenvalues --    2.07582   2.14072   2.15437   2.15776   2.17402
 Alpha virt. eigenvalues --    2.19793   2.20766   2.22808   2.23624   2.25511
 Alpha virt. eigenvalues --    2.26745   2.31488   2.33810   2.34617   2.35739
 Alpha virt. eigenvalues --    2.36857   2.38333   2.38396   2.42385   2.47347
 Alpha virt. eigenvalues --    2.48652   2.49081   2.49663   2.50458   2.55275
 Alpha virt. eigenvalues --    2.55411   2.57273   2.57309   2.57875   2.62701
 Alpha virt. eigenvalues --    2.64197   2.64768   2.67947   2.68090   2.73680
 Alpha virt. eigenvalues --    2.75347   2.76005   2.87235   2.88662   2.94305
 Alpha virt. eigenvalues --    2.98483   2.98794   3.04797   3.07011   3.11696
 Alpha virt. eigenvalues --    3.15504   3.20479   3.21947   3.24980   3.29798
 Alpha virt. eigenvalues --    3.56265   3.61048   3.69752   3.90064   3.93042
 Alpha virt. eigenvalues --    3.99914   4.03735   4.09172   4.10166   4.20234
 Alpha virt. eigenvalues --    4.27469   4.32091   4.41841   4.50561   4.57271
 Alpha virt. eigenvalues --    4.63190   4.84653
          Condensed to atoms (all electrons):
              1          2          3          4          5          6
     1  C    5.085997   0.430379   0.013796  -0.063496  -0.000783   0.000111
     2  C    0.430379   5.053965   0.442387  -0.038899   0.019992   0.000448
     3  C    0.013796   0.442387   4.792372   0.427318  -0.041075  -0.111594
     4  C   -0.063496  -0.038899   0.427318   5.001277   0.371313   0.011882
     5  C   -0.000783   0.019992  -0.041075   0.371313   5.181948   0.470677
     6  C    0.000111   0.000448  -0.111594   0.011882   0.470677   4.836833
     7  O    0.003332  -0.057469   0.270235  -0.048672  -0.066518   0.315527
     8  C    0.001536  -0.081149  -0.001594   0.262686  -0.120217   0.014898
     9  C    0.420888   0.015979  -0.051138  -0.009787   0.011022  -0.000277
    10  C   -0.066400   0.009399  -0.000073   0.011106  -0.000115   0.000000
    11  C    0.009112  -0.000419  -0.000023   0.000649   0.000057   0.000000
    12  C    0.001350  -0.000056   0.000100  -0.001803  -0.000153   0.000002
    13  O    0.000006   0.000000   0.000001  -0.000188  -0.000004   0.000000
    14  O    0.004995  -0.000201   0.002726  -0.065271  -0.000525   0.000080
    15  H    0.361614  -0.044158   0.004034   0.000587   0.000015   0.000001
    16  H   -0.037694   0.345126  -0.032154   0.006149  -0.000386   0.000068
    17  H   -0.000002  -0.000246   0.007207  -0.024547   0.363932  -0.047425
    18  H    0.000004  -0.000314   0.004237   0.002256  -0.040989   0.378945
    19  H   -0.011244   0.000318  -0.000007  -0.000090   0.000002   0.000000
    20  H   -0.000247   0.000004   0.000000   0.000020   0.000000   0.000000
              7          8          9         10         11         12
     1  C    0.003332   0.001536   0.420888  -0.066400   0.009112   0.001350
     2  C   -0.057469  -0.081149   0.015979   0.009399  -0.000419  -0.000056
     3  C    0.270235  -0.001594  -0.051138  -0.000073  -0.000023   0.000100
     4  C   -0.048672   0.262686  -0.009787   0.011106   0.000649  -0.001803
     5  C   -0.066518  -0.120217   0.011022  -0.000115   0.000057  -0.000153
     6  C    0.315527   0.014898  -0.000277   0.000000   0.000000   0.000002
     7  O    8.036061   0.008405  -0.000233  -0.000003   0.000000   0.000000
     8  C    0.008405   5.255333   0.338894  -0.055141  -0.022050  -0.005748
     9  C   -0.000233   0.338894   4.872569   0.385156   0.008967  -0.023770
    10  C   -0.000003  -0.055141   0.385156   5.084710   0.400319  -0.021087
    11  C    0.000000  -0.022050   0.008967   0.400319   5.196530   0.365267
    12  C    0.000000  -0.005748  -0.023770  -0.021087   0.365267   4.418436
    13  O    0.000000  -0.001282   0.000922   0.005914  -0.076929   0.543420
    14  O   -0.000010   0.226306  -0.044814  -0.014847  -0.078914   0.204806
    15  H   -0.000059   0.005704  -0.043156  -0.012508   0.000495  -0.000028
    16  H   -0.001576   0.001015   0.003687  -0.000158   0.000003   0.000000
    17  H    0.003305  -0.006321  -0.000086   0.000003   0.000002   0.000023
    18  H   -0.038646  -0.000128   0.000003   0.000000   0.000000   0.000000
    19  H    0.000000   0.005362  -0.045560   0.356210  -0.039232   0.003745
    20  H    0.000000   0.001199   0.003930  -0.038350   0.359407  -0.032317
             13         14         15         16         17         18
     1  C    0.000006   0.004995   0.361614  -0.037694  -0.000002   0.000004
     2  C    0.000000  -0.000201  -0.044158   0.345126  -0.000246  -0.000314
     3  C    0.000001   0.002726   0.004034  -0.032154   0.007207   0.004237
     4  C   -0.000188  -0.065271   0.000587   0.006149  -0.024547   0.002256
     5  C   -0.000004  -0.000525   0.000015  -0.000386   0.363932  -0.040989
     6  C    0.000000   0.000080   0.000001   0.000068  -0.047425   0.378945
     7  O    0.000000  -0.000010  -0.000059  -0.001576   0.003305  -0.038646
     8  C   -0.001282   0.226306   0.005704   0.001015  -0.006321  -0.000128
     9  C    0.000922  -0.044814  -0.043156   0.003687  -0.000086   0.000003
    10  C    0.005914  -0.014847  -0.012508  -0.000158   0.000003   0.000000
    11  C   -0.076929  -0.078914   0.000495   0.000003   0.000002   0.000000
    12  C    0.543420   0.204806  -0.000028   0.000000   0.000023   0.000000
    13  O    8.038860  -0.059485   0.000000   0.000000   0.000001   0.000000
    14  O   -0.059485   8.314840  -0.000046   0.000002   0.001390   0.000000
    15  H    0.000000  -0.000046   0.660133  -0.006610   0.000000   0.000000
    16  H    0.000000   0.000002  -0.006610   0.647658   0.000001  -0.000001
    17  H    0.000001   0.001390   0.000000   0.000001   0.613824   0.000047
    18  H    0.000000   0.000000   0.000000  -0.000001   0.000047   0.594562
    19  H   -0.000107  -0.000263   0.006060  -0.000009   0.000000   0.000000
    20  H   -0.001604   0.002936  -0.000017   0.000000   0.000000   0.000000
             19         20
     1  C   -0.011244  -0.000247
     2  C    0.000318   0.000004
     3  C   -0.000007   0.000000
     4  C   -0.000090   0.000020
     5  C    0.000002   0.000000
     6  C    0.000000   0.000000
     7  O    0.000000   0.000000
     8  C    0.005362   0.001199
     9  C   -0.045560   0.003930
    10  C    0.356210  -0.038350
    11  C   -0.039232   0.359407
    12  C    0.003745  -0.032317
    13  O   -0.000107  -0.001604
    14  O   -0.000263   0.002936
    15  H    0.006060  -0.000017
    16  H   -0.000009   0.000000
    17  H    0.000000   0.000000
    18  H    0.000000   0.000000
    19  H    0.656334  -0.007809
    20  H   -0.007809   0.627534
 Mulliken atomic charges:
              1
     1  C   -0.153254
     2  C   -0.095085
     3  C    0.273248
     4  C    0.157509
     5  C   -0.148193
     6  C    0.129821
     7  O   -0.423680
     8  C    0.172292
     9  C    0.156804
    10  C   -0.044136
    11  C   -0.123241
    12  C    0.547815
    13  O   -0.449526
    14  O   -0.493707
    15  H    0.067938
    16  H    0.074878
    17  H    0.088891
    18  H    0.100023
    19  H    0.076292
    20  H    0.085313
 Sum of Mulliken atomic charges =   0.00000
 Mulliken charges with hydrogens summed into heavy atoms:
              1
     1  C   -0.085317
     2  C   -0.020207
     3  C    0.273248
     4  C    0.157509
     5  C   -0.059302
     6  C    0.229844
     7  O   -0.423680
     8  C    0.172292
     9  C    0.156804
    10  C    0.032155
    11  C   -0.037927
    12  C    0.547815
    13  O   -0.449526
    14  O   -0.493707
 Sum of Mulliken charges with hydrogens summed into heavy atoms =   0.00000
 Electronic spatial extent (au):  <R**2>=           2610.3081
 Charge=              0.0000 electrons
 Dipole moment (field-independent basis, Debye):
    X=             -3.3337    Y=              2.8080    Z=              0.0032  Tot=              4.3587
 Quadrupole moment (field-independent basis, Debye-Ang):
   XX=            -80.7577   YY=            -72.2390   ZZ=            -79.1635
   XY=             14.2385   XZ=              0.0009   YZ=             -0.0003
 Traceless Quadrupole moment (field-independent basis, Debye-Ang):
   XX=             -3.3710   YY=              5.1477   ZZ=             -1.7768
   XY=             14.2385   XZ=              0.0009   YZ=             -0.0003
 Octapole moment (field-independent basis, Debye-Ang**2):
  XXX=            -51.2135  YYY=              6.8440  ZZZ=             -0.0070  XYY=            -24.4268
  XXY=             20.2998  XXZ=              0.0275  XZZ=              4.5422  YZZ=             -6.0672
  YYZ=              0.0294  XYZ=              0.0125
 Hexadecapole moment (field-independent basis, Debye-Ang**3):
 XXXX=          -2413.6781 YYYY=           -847.5418 ZZZZ=            -74.9914 XXXY=            186.3521
 XXXZ=              0.0127 YYYX=             29.9500 YYYZ=              0.0056 ZZZX=              0.0001
 ZZZY=              0.0101 XXYY=           -540.4029 XXZZ=           -417.3651 YYZZ=           -176.7235
 XXYZ=             -0.0030 YYXZ=             -0.0036 ZZXY=            -15.4978
 N-N= 8.130826107721D+02 E-N=-3.136983338290D+03  KE= 6.425668740333D+02
 Calling FoFJK, ICntrl=      2527 FMM=F ISym2X=0 I1Cent= 0 IOpClX= 0 NMat=1 NMatS=1 NMatT=0.
 ***** Axes restored to original set *****
 -------------------------------------------------------------------
 Center     Atomic                   Forces (Hartrees/Bohr)
 Number     Number              X              Y              Z
 -------------------------------------------------------------------
      1        6           0.021212149   -0.014169033    0.000001561
      2        6          -0.003012066   -0.007970386    0.000023999
      3        6          -0.002328088   -0.021881587   -0.000034013
      4        6          -0.017065685    0.015050786    0.000023808
      5        6           0.016375253    0.017013259   -0.000035562
      6        6          -0.011607720    0.020362556    0.000024667
      7        8           0.015761397   -0.021680655    0.000006563
      8        6          -0.020853623    0.014862752    0.000014608
      9        6          -0.015870221   -0.002490862    0.000026398
     10        6           0.018300371   -0.007921316    0.000003270
     11        6          -0.008555645    0.014981454   -0.000001528
     12        6          -0.031514623   -0.009967884    0.000036319
     13        8           0.019010496    0.007346491   -0.000023765
     14        8           0.026319442   -0.002486928   -0.000004166
     15        1          -0.003342655   -0.001810528   -0.000017402
     16        1           0.003765846   -0.003928354   -0.000006047
     17        1          -0.002171496    0.003839008   -0.000022690
     18        1           0.001397519    0.003091725    0.000002079
     19        1          -0.000990261   -0.006204150   -0.000011360
     20        1          -0.004830391    0.003963653   -0.000006737
 -------------------------------------------------------------------
 Cartesian Forces:  Max     0.031514623 RMS     0.011195414

 GradGradGradGradGradGradGradGradGradGradGradGradGradGradGradGradGradGrad
 Berny optimization.
 Internal  Forces:  Max     0.031327781 RMS     0.007908915
 Search for a local minimum.
 Step number   1 out of a maximum of  119
 All quantities printed in internal units (Hartrees-Bohrs-Radians)
 Mixed Optimization -- RFO/linear search
 Second derivative matrix not updated -- first step.
 ITU=  0
     Eigenvalues ---    0.01336   0.01436   0.01740   0.01793   0.01887
     Eigenvalues ---    0.01944   0.02015   0.02042   0.02084   0.02115
     Eigenvalues ---    0.02130   0.02149   0.02177   0.02179   0.02260
     Eigenvalues ---    0.02349   0.02420   0.16000   0.16000   0.16000
     Eigenvalues ---    0.16000   0.16000   0.16000   0.22388   0.22623
     Eigenvalues ---    0.22754   0.24400   0.24597   0.24803   0.25000
     Eigenvalues ---    0.25000   0.25000   0.34497   0.35089   0.35448
     Eigenvalues ---    0.35562   0.35654   0.35747   0.35905   0.37056
     Eigenvalues ---    0.38939   0.39638   0.40305   0.41155   0.43178
     Eigenvalues ---    0.45175   0.45527   0.45837   0.46622   0.47663
     Eigenvalues ---    0.50965   0.52457   0.57040   0.91774
 RFO step:  Lambda=-1.75744764D-02 EMin= 1.33643035D-02
 Linear search not attempted -- first point.
 Iteration  1 RMS(Cart)=  0.06123023 RMS(Int)=  0.00173779
 Iteration  2 RMS(Cart)=  0.00222679 RMS(Int)=  0.00006849
 Iteration  3 RMS(Cart)=  0.00000244 RMS(Int)=  0.00006847
 Iteration  4 RMS(Cart)=  0.00000000 RMS(Int)=  0.00006847
 Variable       Old X    -DE/DX   Delta X   Delta X   Delta X     New X
                                 (Linear)    (Quad)   (Total)
    R1        2.63528   0.00441   0.00000   0.01009   0.01009   2.64537
    R2        2.63860   0.02762   0.00000   0.05760   0.05762   2.69622
    R3        2.05531   0.00306   0.00000   0.00830   0.00830   2.06361
    R4        2.63089   0.01052   0.00000   0.02249   0.02246   2.65335
    R5        2.04626   0.00538   0.00000   0.01439   0.01439   2.06065
    R6        2.63323   0.02476   0.00000   0.05263   0.05263   2.68586
    R7        2.56818   0.01459   0.00000   0.02875   0.02887   2.59706
    R8        2.69382   0.01571   0.00000   0.03445   0.03434   2.72816
    R9        2.66971  -0.00291   0.00000  -0.00745  -0.00745   2.66226
   R10        2.60511  -0.00479   0.00000  -0.01164  -0.01173   2.59337
   R11        2.04230   0.00414   0.00000   0.01098   0.01098   2.05329
   R12        2.56294   0.02838   0.00000   0.05117   0.05121   2.61415
   R13        2.04479   0.00235   0.00000   0.00628   0.00628   2.05106
   R14        2.65539   0.00881   0.00000   0.01641   0.01657   2.67195
   R15        2.69140  -0.02053   0.00000  -0.05017  -0.05013   2.64126
   R16        2.74333   0.00262   0.00000   0.00809   0.00818   2.75151
   R17        2.51991   0.03133   0.00000   0.05404   0.05400   2.57390
   R18        2.04954   0.00609   0.00000   0.01636   0.01636   2.06591
   R19        2.78010   0.00146   0.00000   0.00601   0.00587   2.78597
   R20        2.04772   0.00452   0.00000   0.01212   0.01212   2.05984
   R21        2.32126  -0.00572   0.00000  -0.00612  -0.00612   2.31515
   R22        2.63481   0.00562   0.00000   0.01036   0.01027   2.64508
    A1        2.11371   0.00159   0.00000   0.00853   0.00860   2.12230
    A2        2.07241   0.00153   0.00000   0.00881   0.00878   2.08119
    A3        2.09706  -0.00312   0.00000  -0.01734  -0.01737   2.07969
    A4        2.03829  -0.00357   0.00000  -0.01136  -0.01135   2.02694
    A5        2.12502   0.00260   0.00000   0.01026   0.01025   2.13527
    A6        2.11987   0.00097   0.00000   0.00111   0.00110   2.12098
    A7        2.17459   0.00232   0.00000   0.00707   0.00698   2.18158
    A8        2.17359   0.00591   0.00000   0.01852   0.01846   2.19205
    A9        1.93501  -0.00823   0.00000  -0.02558  -0.02544   1.90956
   A10        1.83182   0.00675   0.00000   0.02565   0.02556   1.85738
   A11        2.04777  -0.00102   0.00000  -0.00562  -0.00557   2.04220
   A12        2.40360  -0.00572   0.00000  -0.02003  -0.01999   2.38361
   A13        1.86228  -0.00343   0.00000  -0.02260  -0.02281   1.83947
   A14        2.23442   0.00015   0.00000   0.00250   0.00261   2.23703
   A15        2.18648   0.00328   0.00000   0.02010   0.02020   2.20668
   A16        1.92974   0.00814   0.00000   0.02928   0.02922   1.95896
   A17        2.34420  -0.00657   0.00000  -0.02871  -0.02868   2.31552
   A18        2.00925  -0.00157   0.00000  -0.00057  -0.00054   2.00870
   A19        1.86593  -0.00323   0.00000  -0.00675  -0.00653   1.85940
   A20        2.08506   0.00346   0.00000   0.01322   0.01319   2.09826
   A21        2.12275  -0.01793   0.00000  -0.06120  -0.06133   2.06142
   A22        2.07537   0.01448   0.00000   0.04798   0.04814   2.12351
   A23        2.10694  -0.00277   0.00000  -0.01183  -0.01185   2.09509
   A24        2.08197   0.01398   0.00000   0.05344   0.05326   2.13523
   A25        2.09427  -0.01121   0.00000  -0.04161  -0.04140   2.05287
   A26        2.09289   0.00003   0.00000   0.00871   0.00879   2.10168
   A27        2.07478  -0.00161   0.00000  -0.01334  -0.01337   2.06141
   A28        2.11552   0.00158   0.00000   0.00462   0.00459   2.12010
   A29        2.13179  -0.00368   0.00000  -0.00632  -0.00647   2.12532
   A30        2.11434   0.00625   0.00000   0.02801   0.02808   2.14243
   A31        2.03705  -0.00257   0.00000  -0.02169  -0.02161   2.01544
   A32        2.09611   0.02355   0.00000   0.08772   0.08783   2.18394
   A33        2.04494  -0.00170   0.00000  -0.00574  -0.00596   2.03898
   A34        2.14213  -0.02185   0.00000  -0.08198  -0.08187   2.06026
   A35        2.12710   0.00209   0.00000  -0.00302  -0.00308   2.12402
    D1        0.00054  -0.00002   0.00000  -0.00039  -0.00039   0.00015
    D2        3.14148   0.00000   0.00000  -0.00003  -0.00003   3.14145
    D3       -3.14072  -0.00002   0.00000  -0.00048  -0.00049  -3.14121
    D4        0.00022   0.00000   0.00000  -0.00012  -0.00013   0.00009
    D5       -0.00038   0.00001   0.00000   0.00026   0.00026  -0.00012
    D6       -3.14135   0.00000   0.00000  -0.00007  -0.00009  -3.14143
    D7        3.14088   0.00001   0.00000   0.00036   0.00036   3.14124
    D8       -0.00009   0.00000   0.00000   0.00002   0.00001  -0.00008
    D9       -0.00006   0.00000   0.00000   0.00013   0.00014   0.00008
   D10        3.14118   0.00000   0.00000   0.00005   0.00005   3.14123
   D11       -3.14100  -0.00001   0.00000  -0.00023  -0.00023  -3.14123
   D12        0.00024  -0.00001   0.00000  -0.00031  -0.00031  -0.00008
   D13        3.14061   0.00002   0.00000   0.00056   0.00056   3.14117
   D14       -0.00057   0.00001   0.00000   0.00026   0.00025  -0.00032
   D15       -0.00067   0.00002   0.00000   0.00062   0.00063  -0.00005
   D16        3.14133   0.00001   0.00000   0.00032   0.00032  -3.14153
   D17       -3.14081  -0.00001   0.00000  -0.00027  -0.00027  -3.14108
   D18        0.00047  -0.00001   0.00000  -0.00034  -0.00034   0.00013
   D19        0.00061  -0.00002   0.00000  -0.00067  -0.00067  -0.00006
   D20       -3.14074  -0.00002   0.00000  -0.00055  -0.00055  -3.14129
   D21       -3.14153  -0.00001   0.00000  -0.00026  -0.00026   3.14139
   D22        0.00031   0.00000   0.00000  -0.00014  -0.00014   0.00016
   D23        0.00072  -0.00001   0.00000  -0.00039  -0.00039   0.00034
   D24       -3.14132   0.00001   0.00000   0.00002   0.00000  -3.14133
   D25       -3.14027  -0.00003   0.00000  -0.00084  -0.00083  -3.14110
   D26        0.00087  -0.00001   0.00000  -0.00043  -0.00045   0.00042
   D27       -0.00036   0.00002   0.00000   0.00051   0.00050   0.00014
   D28        3.14150   0.00000   0.00000   0.00014   0.00014  -3.14154
   D29        3.14100   0.00002   0.00000   0.00039   0.00038   3.14138
   D30       -0.00032   0.00000   0.00000   0.00002   0.00002  -0.00030
   D31       -0.00006  -0.00001   0.00000  -0.00012  -0.00012  -0.00018
   D32        3.14132   0.00000   0.00000   0.00017   0.00017   3.14149
   D33       -0.00028   0.00000   0.00000   0.00014   0.00015  -0.00013
   D34        3.14069   0.00002   0.00000   0.00051   0.00051   3.14119
   D35       -3.14143  -0.00001   0.00000  -0.00023  -0.00023   3.14153
   D36       -0.00046   0.00001   0.00000   0.00014   0.00014  -0.00033
   D37       -3.14101  -0.00002   0.00000  -0.00032  -0.00030  -3.14131
   D38        0.00013   0.00000   0.00000   0.00008   0.00008   0.00021
   D39        3.14147   0.00000   0.00000   0.00013   0.00014  -3.14157
   D40        0.00032  -0.00001   0.00000  -0.00012  -0.00011   0.00020
   D41        0.00050  -0.00001   0.00000  -0.00021  -0.00020   0.00030
   D42       -3.14066  -0.00002   0.00000  -0.00046  -0.00046  -3.14112
   D43       -0.00019   0.00000   0.00000   0.00005   0.00005  -0.00014
   D44       -3.14134   0.00000   0.00000  -0.00016  -0.00017  -3.14151
   D45        3.14096   0.00001   0.00000   0.00030   0.00031   3.14126
   D46       -0.00019   0.00000   0.00000   0.00009   0.00009  -0.00010
   D47       -3.14145  -0.00001   0.00000  -0.00026  -0.00028   3.14146
   D48       -0.00014   0.00001   0.00000   0.00016   0.00015   0.00001
   D49       -0.00028   0.00000   0.00000  -0.00005  -0.00006  -0.00035
   D50        3.14103   0.00001   0.00000   0.00037   0.00037   3.14139
   D51        0.00017  -0.00001   0.00000  -0.00022  -0.00021  -0.00004
   D52        3.14147   0.00001   0.00000   0.00024   0.00021  -3.14150
         Item               Value     Threshold  Converged?
 Maximum Force            0.031328     0.000450     NO 
 RMS     Force            0.007909     0.000300     NO 
 Maximum Displacement     0.308851     0.001800     NO 
 RMS     Displacement     0.061934     0.001200     NO 
 Predicted change in Energy=-9.232538D-03
 GradGradGradGradGradGradGradGradGradGradGradGradGradGradGradGradGradGrad

                          Input orientation:                          
 ---------------------------------------------------------------------
 Center     Atomic      Atomic             Coordinates (Angstroms)
 Number     Number       Type             X           Y           Z
 ---------------------------------------------------------------------
      1          6           0       -0.252431   -2.065082    0.001636
      2          6           0        1.143719   -1.963109    0.001169
      3          6           0        1.668744   -0.660872    0.000375
      4          6           0        0.893673    0.530492    0.000113
      5          6           0        1.831902    1.627731   -0.000147
      6          6           0        3.074265    1.044729    0.000046
      7          8           0        3.004303   -0.336851    0.000224
      8          6           0       -0.507322    0.382314    0.000300
      9          6           0       -1.086563   -0.907530    0.001140
     10          6           0       -2.539982   -0.994820    0.001809
     11          6           0       -3.298756    0.136306    0.001273
     12          6           0       -2.690335    1.479177    0.000190
     13          8           0       -3.312043    2.534829   -0.000469
     14          8           0       -1.291899    1.539031   -0.000281
     15          1           0       -0.715075   -3.054249    0.002621
     16          1           0        1.792637   -2.839459    0.001668
     17          1           0        1.619099    2.693242   -0.000127
     18          1           0        4.079245    1.454675    0.000011
     19          1           0       -2.996336   -1.988245    0.002920
     20          1           0       -4.388575    0.115339    0.001820
 ---------------------------------------------------------------------
                    Distance matrix (angstroms):
                    1          2          3          4          5
     1  C    0.000000
     2  C    1.399869   0.000000
     3  C    2.379648   1.404092   0.000000
     4  C    2.837351   2.506106   1.421296   0.000000
     5  C    4.240439   3.656191   2.294412   1.443679   0.000000
     6  C    4.553881   3.574087   2.210105   2.240407   1.372355
     7  O    3.686883   2.471132   1.374302   2.281895   2.287818
     8  C    2.460634   2.868266   2.413194   1.408810   2.650101
     9  C    1.426781   2.467469   2.766326   2.447293   3.865875
    10  C    2.525539   3.808836   4.221955   3.757202   5.098152
    11  C    3.758484   4.913565   5.031058   4.210919   5.343033
    12  C    4.301761   5.152601   4.856066   3.707441   4.524676
    13  O    5.524528   6.331292   5.917833   4.658907   5.223313
    14  O    3.751017   4.265821   3.688494   2.407048   3.125061
    15  H    1.092013   2.155389   3.377996   3.929179   5.329920
    16  H    2.186770   1.090451   2.182107   3.487793   4.467363
    17  H    5.113148   4.680555   3.354482   2.281169   1.086554
    18  H    5.581408   4.505393   3.207188   3.316924   2.253996
    19  H    2.744980   4.140131   4.850247   4.634243   6.032178
    20  H    4.675674   5.909841   6.106851   5.298538   6.401693
                    6          7          8          9         10
     6  C    0.000000
     7  O    1.383350   0.000000
     8  C    3.642329   3.584510   0.000000
     9  C    4.596065   4.130480   1.413937   0.000000
    10  C    5.973235   5.583191   2.455241   1.456038   0.000000
    11  C    6.437440   6.320793   2.802253   2.446097   1.362052
    12  C    5.780948   5.977195   2.443082   2.875492   2.478562
    13  O    6.557845   6.938500   3.535503   4.099097   3.613103
    14  O    4.394056   4.687888   1.397697   2.455163   2.824557
    15  H    5.582180   4.606304   3.442838   2.178626   2.751642
    16  H    4.090170   2.780500   3.958489   3.467296   4.708957
    17  H    2.198887   3.331705   3.140391   4.504017   5.558756
    18  H    1.085375   2.089274   4.710261   5.680280   7.057917
    19  H    6.786099   6.223727   3.437258   2.194352   1.093230
    20  H    7.520489   7.406695   3.890425   3.456811   2.156328
                   11         12         13         14         15
    11  C    0.000000
    12  C    1.474272   0.000000
    13  O    2.398561   1.225122   0.000000
    14  O    2.448492   1.399716   2.252242   0.000000
    15  H    4.105490   4.945059   6.162958   4.629359   0.000000
    16  H    5.897241   6.224761   7.412201   5.355888   2.516894
    17  H    5.542853   4.477184   4.933686   3.131471   6.203389
    18  H    7.494864   6.769624   7.469797   5.371807   6.581483
    19  H    2.145968   3.480899   4.534080   3.917498   2.518038
    20  H    1.090022   2.178090   2.648180   3.408270   4.851896
                   16         17         18         19         20
    16  H    0.000000
    17  H    5.535422   0.000000
    18  H    4.864994   2.754336   0.000000
    19  H    4.864034   6.574083   7.868770   0.000000
    20  H    6.851147   6.537411   8.573086   2.522578   0.000000
 Stoichiometry    C11H6O3
 Framework group  C1[X(C11H6O3)]
 Deg. of freedom    54
 Full point group                 C1      NOp   1
 Largest Abelian subgroup         C1      NOp   1
 Largest concise Abelian subgroup C1      NOp   1
                         Standard orientation:                         
 ---------------------------------------------------------------------
 Center     Atomic      Atomic             Coordinates (Angstroms)
 Number     Number       Type             X           Y           Z
 ---------------------------------------------------------------------
      1          6           0       -0.430351    2.210386   -0.000035
      2          6           0       -1.780858    1.841925   -0.000261
      3          6           0       -2.045754    0.463047   -0.000329
      4          6           0       -1.056116   -0.557099   -0.000101
      5          6           0       -1.765918   -1.814236    0.000316
      6          6           0       -3.097183   -1.480934    0.000388
      7          8           0       -3.294115   -0.111673   -0.000136
      8          6           0        0.290264   -0.142364   -0.000181
      9          6           0        0.610747    1.234774   -0.000066
     10          6           0        2.020277    1.599836    0.000360
     11          6           0        2.982342    0.635669    0.000287
     12          6           0        2.643416   -0.799116   -0.000040
     13          8           0        3.456463   -1.715565   -0.000255
     14          8           0        1.282570   -1.126684   -0.000289
     15          1           0       -0.166489    3.270041    0.000391
     16          1           0       -2.586138    2.577184   -0.000111
     17          1           0       -1.352254   -2.818965    0.000841
     18          1           0       -4.004612   -2.076427    0.000696
     19          1           0        2.277147    2.662459    0.000911
     20          1           0        4.047804    0.865748    0.000675
 ---------------------------------------------------------------------
 Rotational constants (GHZ):      1.4948616      0.5380538      0.3956466
 Standard basis: 6-31G(d,p) (6D, 7F)
 There are   240 symmetry adapted basis functions of A   symmetry.
 Integral buffers will be    131072 words long.
 Raffenetti 2 integral format.
 Two-electron integral symmetry is turned on.
   240 basis functions,   434 primitive gaussians,   240 cartesian basis functions
    48 alpha electrons       48 beta electrons
       nuclear repulsion energy       809.9836492591 Hartrees.
 NAtoms=   20 NActive=   20 NUniq=   20 SFac= 1.00D+00 NAtFMM=   60 NAOKFM=F Big=F
 One-electron integrals computed using PRISM.
 NBasis=   240 RedAO= T  NBF=   240
 NBsUse=   240 1.00D-06 NBFU=   240
 Initial guess read from the read-write file.
 B after Tr=     0.000000    0.000000    0.000000
         Rot=    1.000000    0.000000    0.000000    0.000000 Ang=   0.00 deg.
 Initial guess orbital symmetries:
       Occupied  (A) (A) (A) (A) (A) (A) (A) (A) (A) (A) (A) (A)
                 (A) (A) (A) (A) (A) (A) (A) (A) (A) (A) (A) (A)
                 (A) (A) (A) (A) (A) (A) (A) (A) (A) (A) (A) (A)
                 (A) (A) (A) (A) (A) (A) (A) (A) (A) (A) (A) (A)
       Virtual   (A) (A) (A) (A) (A) (A) (A) (A) (A) (A) (A) (A)
                 (A) (A) (A) (A) (A) (A) (A) (A) (A) (A) (A) (A)
                 (A) (A) (A) (A) (A) (A) (A) (A) (A) (A) (A) (A)
                 (A) (A) (A) (A) (A) (A) (A) (A) (A) (A) (A) (A)
                 (A) (A) (A) (A) (A) (A) (A) (A) (A) (A) (A) (A)
                 (A) (A) (A) (A) (A) (A) (A) (A) (A) (A) (A) (A)
                 (A) (A) (A) (A) (A) (A) (A) (A) (A) (A) (A) (A)
                 (A) (A) (A) (A) (A) (A) (A) (A) (A) (A) (A) (A)
                 (A) (A) (A) (A) (A) (A) (A) (A) (A) (A) (A) (A)
                 (A) (A) (A) (A) (A) (A) (A) (A) (A) (A) (A) (A)
                 (A) (A) (A) (A) (A) (A) (A) (A) (A) (A) (A) (A)
                 (A) (A) (A) (A) (A) (A) (A) (A) (A) (A) (A) (A)
                 (A) (A) (A) (A) (A) (A) (A) (A) (A) (A) (A) (A)
                 (A) (A) (A) (A) (A) (A) (A) (A) (A) (A) (A) (A)
                 (A) (A) (A) (A) (A) (A) (A) (A) (A) (A) (A) (A)
                 (A) (A) (A) (A) (A) (A) (A) (A) (A) (A) (A) (A)
 Harris functional with IExCor=  402 diagonalized for initial guess.
 ExpMin= 1.61D-01 ExpMax= 5.48D+03 ExpMxC= 8.25D+02 IAcc=1 IRadAn=         1 AccDes= 0.00D+00
 HarFok:  IExCor=  402 AccDes= 0.00D+00 IRadAn=         1 IDoV= 1
 ScaDFX=  1.000000  1.000000  1.000000  1.000000
 FoFCou: FMM=F IPFlag=           0 FMFlag=      100000 FMFlg1=           0
         NFxFlg=           0 DoJE=T BraDBF=F KetDBF=T FulRan=T
         Omega=  0.000000  0.000000  1.000000  0.000000  0.000000 ICntrl=     500 IOpCl=  0
         NMat0=    1 NMatS0=    1 NMatT0=    0 NMatD0=    1 NMtDS0=    0 NMtDT0=    0
         I1Cent=           4 NGrid=           0.
 Petite list used in FoFCou.
 Requested convergence on RMS density matrix=1.00D-08 within 128 cycles.
 Requested convergence on MAX density matrix=1.00D-06.
 Requested convergence on             energy=1.00D-06.
 No special actions if energy rises.
 Keep J ints in memory in canonical form, NReq=425559447.
 Integral accuracy reduced to 1.0D-05 until final iterations.
 Initial convergence to 1.0D-05 achieved.  Increase integral accuracy.
 SCF Done:  E(RB-LYP) =  -648.264081584     A.U. after   14 cycles
             Convg  =    0.9002D-08             -V/T =  2.0095
 Calling FoFJK, ICntrl=      2527 FMM=F ISym2X=0 I1Cent= 0 IOpClX= 0 NMat=1 NMatS=1 NMatT=0.
 ***** Axes restored to original set *****
 -------------------------------------------------------------------
 Center     Atomic                   Forces (Hartrees/Bohr)
 Number     Number              X              Y              Z
 -------------------------------------------------------------------
      1        6           0.005734809    0.000034963    0.000004479
      2        6          -0.003094327    0.000661204    0.000004376
      3        6          -0.002599767    0.001463592    0.000012176
      4        6          -0.001960412   -0.002605742   -0.000008797
      5        6           0.005288837   -0.000983772    0.000012824
      6        6          -0.003691420    0.007117942   -0.000016517
      7        8           0.005823087   -0.005002767    0.000008836
      8        6          -0.007172368    0.010658822   -0.000009889
      9        6          -0.006647460   -0.005391976    0.000016519
     10        6           0.007264065    0.001784759   -0.000000907
     11        6           0.001832965    0.003477654    0.000013151
     12        6          -0.018966619   -0.000493686   -0.000020845
     13        8           0.003562510   -0.001813208    0.000009437
     14        8           0.017653783   -0.008763136    0.000013072
     15        1          -0.001393583    0.000354511   -0.000009888
     16        1           0.000036857    0.000210622   -0.000005161
     17        1          -0.000966247   -0.000783184   -0.000008401
     18        1           0.000317937   -0.000157079   -0.000000786
     19        1          -0.001015631   -0.000057404   -0.000011342
     20        1          -0.000007018    0.000287886   -0.000002338
 -------------------------------------------------------------------
 Cartesian Forces:  Max     0.018966619 RMS     0.004643336

 GradGradGradGradGradGradGradGradGradGradGradGradGradGradGradGradGradGrad
 Berny optimization.
 Using GEDIIS/GDIIS optimizer.
 Internal  Forces:  Max     0.011137028 RMS     0.001991629
 Search for a local minimum.
 Step number   2 out of a maximum of  119
 All quantities printed in internal units (Hartrees-Bohrs-Radians)
 Mixed Optimization -- RFO/linear search
 Update second derivatives using D2CorX and points    1    2
 DE= -9.72D-03 DEPred=-9.23D-03 R= 1.05D+00
 SS=  1.41D+00  RLast= 2.25D-01 DXNew= 5.0454D-01 6.7599D-01
 Trust test= 1.05D+00 RLast= 2.25D-01 DXMaxT set to 5.05D-01
 ITU=  1  0
 Use linear search instead of GDIIS.
     Eigenvalues ---    0.01309   0.01439   0.01742   0.01791   0.01890
     Eigenvalues ---    0.01948   0.02017   0.02056   0.02087   0.02121
     Eigenvalues ---    0.02136   0.02149   0.02177   0.02180   0.02261
     Eigenvalues ---    0.02348   0.02435   0.15792   0.16000   0.16000
     Eigenvalues ---    0.16000   0.16000   0.16107   0.22138   0.22498
     Eigenvalues ---    0.22696   0.22947   0.24421   0.24821   0.24979
     Eigenvalues ---    0.25000   0.25964   0.34603   0.35067   0.35363
     Eigenvalues ---    0.35552   0.35644   0.35739   0.35919   0.37378
     Eigenvalues ---    0.37847   0.39248   0.39860   0.40864   0.43153
     Eigenvalues ---    0.44218   0.45751   0.46039   0.47131   0.48521
     Eigenvalues ---    0.51201   0.52881   0.57886   0.91668
 RFO step:  Lambda=-1.11702865D-03 EMin= 1.30870630D-02
 Quartic linear search produced a step of  0.13563.
 Iteration  1 RMS(Cart)=  0.01120077 RMS(Int)=  0.00008614
 Iteration  2 RMS(Cart)=  0.00008817 RMS(Int)=  0.00001078
 Iteration  3 RMS(Cart)=  0.00000001 RMS(Int)=  0.00001078
 Variable       Old X    -DE/DX   Delta X   Delta X   Delta X     New X
                                 (Linear)    (Quad)   (Total)
    R1        2.64537  -0.00155   0.00137  -0.00457  -0.00320   2.64217
    R2        2.69622   0.00089   0.00782  -0.00199   0.00583   2.70206
    R3        2.06361   0.00027   0.00113   0.00025   0.00138   2.06498
    R4        2.65335   0.00020   0.00305  -0.00130   0.00174   2.65509
    R5        2.06065  -0.00015   0.00195  -0.00153   0.00042   2.06107
    R6        2.68586  -0.00110   0.00714  -0.00672   0.00042   2.68628
    R7        2.59706   0.00478   0.00392   0.00885   0.01279   2.60985
    R8        2.72816   0.00134   0.00466   0.00002   0.00466   2.73281
    R9        2.66226   0.00068  -0.00101   0.00238   0.00137   2.66363
   R10        2.59337  -0.00305  -0.00159  -0.00655  -0.00816   2.58522
   R11        2.05329  -0.00058   0.00149  -0.00264  -0.00115   2.05214
   R12        2.61415   0.00497   0.00695   0.00731   0.01427   2.62842
   R13        2.05106   0.00024   0.00085   0.00028   0.00113   2.05219
   R14        2.67195   0.00180   0.00225   0.00290   0.00516   2.67711
   R15        2.64126  -0.01037  -0.00680  -0.02446  -0.03127   2.60999
   R16        2.75151  -0.00399   0.00111  -0.01309  -0.01196   2.73955
   R17        2.57390   0.00203   0.00732   0.00002   0.00735   2.58126
   R18        2.06591   0.00048   0.00222   0.00031   0.00253   2.06843
   R19        2.78597  -0.00442   0.00080  -0.01374  -0.01295   2.77302
   R20        2.05984   0.00000   0.00164  -0.00089   0.00075   2.06059
   R21        2.31515  -0.00337  -0.00083  -0.00372  -0.00455   2.31060
   R22        2.64508   0.01114   0.00139   0.02681   0.02819   2.67327
    A1        2.12230   0.00090   0.00117   0.00324   0.00442   2.12672
    A2        2.08119   0.00101   0.00119   0.00764   0.00883   2.09002
    A3        2.07969  -0.00191  -0.00236  -0.01088  -0.01324   2.06645
    A4        2.02694   0.00112  -0.00154   0.00541   0.00387   2.03082
    A5        2.13527  -0.00040   0.00139  -0.00192  -0.00053   2.13473
    A6        2.12098  -0.00072   0.00015  -0.00349  -0.00334   2.11764
    A7        2.18158  -0.00157   0.00095  -0.00901  -0.00808   2.17350
    A8        2.19205   0.00059   0.00250   0.00138   0.00388   2.19592
    A9        1.90956   0.00098  -0.00345   0.00763   0.00420   1.91376
   A10        1.85738  -0.00052   0.00347  -0.00642  -0.00297   1.85441
   A11        2.04220   0.00155  -0.00076   0.00802   0.00728   2.04948
   A12        2.38361  -0.00103  -0.00271  -0.00161  -0.00431   2.37930
   A13        1.83947   0.00195  -0.00309   0.00829   0.00515   1.84462
   A14        2.23703  -0.00211   0.00035  -0.01144  -0.01107   2.22596
   A15        2.20668   0.00016   0.00274   0.00315   0.00591   2.21260
   A16        1.95896   0.00015   0.00396  -0.00166   0.00229   1.96126
   A17        2.31552   0.00020  -0.00389   0.00382  -0.00007   2.31545
   A18        2.00870  -0.00035  -0.00007  -0.00216  -0.00223   2.00648
   A19        1.85940  -0.00256  -0.00089  -0.00783  -0.00867   1.85073
   A20        2.09826  -0.00042   0.00179  -0.00238  -0.00059   2.09767
   A21        2.06142  -0.00128  -0.00832  -0.00031  -0.00863   2.05279
   A22        2.12351   0.00170   0.00653   0.00269   0.00922   2.13272
   A23        2.09509  -0.00157  -0.00161  -0.00529  -0.00690   2.08818
   A24        2.13523   0.00305   0.00722   0.01108   0.01829   2.15352
   A25        2.05287  -0.00147  -0.00562  -0.00579  -0.01138   2.04149
   A26        2.10168   0.00186   0.00119   0.00769   0.00891   2.11059
   A27        2.06141   0.00000  -0.00181   0.00338   0.00155   2.06296
   A28        2.12010  -0.00186   0.00062  -0.01107  -0.01046   2.10964
   A29        2.12532   0.00005  -0.00088   0.00174   0.00087   2.12619
   A30        2.14243   0.00027   0.00381  -0.00069   0.00311   2.14554
   A31        2.01544  -0.00032  -0.00293  -0.00105  -0.00398   2.01146
   A32        2.18394   0.00399   0.01191   0.01056   0.02249   2.20643
   A33        2.03898  -0.00301  -0.00081  -0.01136  -0.01219   2.02679
   A34        2.06026  -0.00098  -0.01110   0.00080  -0.01029   2.04997
   A35        2.12402   0.00088  -0.00042   0.00503   0.00458   2.12860
    D1        0.00015   0.00000  -0.00005  -0.00017  -0.00023  -0.00008
    D2        3.14145   0.00000   0.00000   0.00013   0.00013   3.14158
    D3       -3.14121  -0.00001  -0.00007  -0.00035  -0.00042   3.14156
    D4        0.00009   0.00000  -0.00002  -0.00004  -0.00006   0.00003
    D5       -0.00012   0.00000   0.00003   0.00013   0.00017   0.00004
    D6       -3.14143   0.00000  -0.00001  -0.00007  -0.00009  -3.14152
    D7        3.14124   0.00001   0.00005   0.00031   0.00036  -3.14159
    D8       -0.00008   0.00000   0.00000   0.00011   0.00011   0.00003
    D9        0.00008   0.00000   0.00002  -0.00002   0.00000   0.00008
   D10        3.14123   0.00001   0.00001   0.00031   0.00032   3.14155
   D11       -3.14123  -0.00001  -0.00003  -0.00032  -0.00035  -3.14158
   D12       -0.00008   0.00000  -0.00004   0.00001  -0.00003  -0.00011
   D13        3.14117   0.00001   0.00008   0.00027   0.00035   3.14151
   D14       -0.00032   0.00001   0.00003   0.00025   0.00028  -0.00004
   D15       -0.00005   0.00000   0.00008  -0.00002   0.00007   0.00002
   D16       -3.14153   0.00000   0.00004  -0.00004   0.00001  -3.14153
   D17       -3.14108  -0.00001  -0.00004  -0.00044  -0.00048  -3.14155
   D18        0.00013   0.00000  -0.00005  -0.00016  -0.00020  -0.00007
   D19       -0.00006   0.00000  -0.00009   0.00018   0.00009   0.00003
   D20       -3.14129  -0.00001  -0.00007  -0.00019  -0.00026  -3.14155
   D21        3.14139   0.00000  -0.00004   0.00021   0.00017   3.14157
   D22        0.00016   0.00000  -0.00002  -0.00016  -0.00018  -0.00001
   D23        0.00034  -0.00001  -0.00005  -0.00028  -0.00034   0.00000
   D24       -3.14133   0.00000   0.00000  -0.00021  -0.00022  -3.14154
   D25       -3.14110  -0.00001  -0.00011  -0.00032  -0.00043  -3.14153
   D26        0.00042   0.00000  -0.00006  -0.00024  -0.00031   0.00011
   D27        0.00014   0.00000   0.00007  -0.00029  -0.00022  -0.00008
   D28       -3.14154   0.00000   0.00002  -0.00014  -0.00013   3.14152
   D29        3.14138   0.00000   0.00005   0.00007   0.00012   3.14150
   D30       -0.00030   0.00000   0.00000   0.00021   0.00022  -0.00008
   D31       -0.00018   0.00001  -0.00002   0.00028   0.00027   0.00009
   D32        3.14149   0.00000   0.00002   0.00017   0.00019  -3.14150
   D33       -0.00013   0.00000   0.00002   0.00011   0.00013   0.00000
   D34        3.14119   0.00001   0.00007   0.00031   0.00037   3.14157
   D35        3.14153   0.00000  -0.00003   0.00004   0.00001   3.14154
   D36       -0.00033   0.00000   0.00002   0.00023   0.00025  -0.00008
   D37       -3.14131  -0.00001  -0.00004  -0.00032  -0.00036   3.14151
   D38        0.00021   0.00000   0.00001  -0.00025  -0.00024  -0.00003
   D39       -3.14157   0.00000   0.00002  -0.00002   0.00001  -3.14156
   D40        0.00020   0.00000  -0.00002  -0.00014  -0.00016   0.00005
   D41        0.00030   0.00000  -0.00003  -0.00022  -0.00024   0.00005
   D42       -3.14112  -0.00001  -0.00006  -0.00034  -0.00040  -3.14152
   D43       -0.00014   0.00000   0.00001   0.00021   0.00022   0.00008
   D44       -3.14151   0.00000  -0.00002  -0.00001  -0.00003  -3.14153
   D45        3.14126   0.00001   0.00004   0.00034   0.00039  -3.14153
   D46       -0.00010   0.00000   0.00001   0.00013   0.00014   0.00004
   D47        3.14146   0.00000  -0.00004   0.00043   0.00040  -3.14133
   D48        0.00001   0.00000   0.00002  -0.00021  -0.00019  -0.00018
   D49       -0.00035   0.00001  -0.00001   0.00063   0.00063   0.00028
   D50        3.14139   0.00000   0.00005  -0.00001   0.00004   3.14143
   D51       -0.00004   0.00000  -0.00003   0.00023   0.00020   0.00016
   D52       -3.14150   0.00000   0.00003  -0.00037  -0.00034   3.14135
         Item               Value     Threshold  Converged?
 Maximum Force            0.011137     0.000450     NO 
 RMS     Force            0.001992     0.000300     NO 
 Maximum Displacement     0.046792     0.001800     NO 
 RMS     Displacement     0.011194     0.001200     NO 
 Predicted change in Energy=-6.882892D-04
 GradGradGradGradGradGradGradGradGradGradGradGradGradGradGradGradGradGrad

                          Input orientation:                          
 ---------------------------------------------------------------------
 Center     Atomic      Atomic             Coordinates (Angstroms)
 Number     Number       Type             X           Y           Z
 ---------------------------------------------------------------------
      1          6           0       -0.246538   -2.073415    0.001752
      2          6           0        1.147586   -1.967046    0.001536
      3          6           0        1.673782   -0.664287    0.000789
      4          6           0        0.889742    0.521461    0.000343
      5          6           0        1.824648    1.624764   -0.000268
      6          6           0        3.068639    1.055543   -0.000199
      7          8           0        3.014856   -0.334316    0.000509
      8          6           0       -0.511949    0.372975    0.000632
      9          6           0       -1.091333   -0.919795    0.001337
     10          6           0       -2.539275   -0.991320    0.001630
     11          6           0       -3.298268    0.144344    0.001175
     12          6           0       -2.691544    1.480457    0.000276
     13          8           0       -3.287282    2.548225    0.000078
     14          8           0       -1.277538    1.522517    0.000140
     15          1           0       -0.715012   -3.060642    0.002292
     16          1           0        1.799005   -2.841814    0.001860
     17          1           0        1.595444    2.686247   -0.000685
     18          1           0        4.070149    1.475442   -0.000582
     19          1           0       -3.008269   -1.980321    0.002245
     20          1           0       -4.388573    0.128632    0.001429
 ---------------------------------------------------------------------
                    Distance matrix (angstroms):
                    1          2          3          4          5
     1  C    0.000000
     2  C    1.398176   0.000000
     3  C    2.381863   1.405014   0.000000
     4  C    2.832757   2.501830   1.421519   0.000000
     5  C    4.238673   3.655068   2.294018   1.446143   0.000000
     6  C    4.558594   3.581409   2.214371   2.243398   1.368037
     7  O    3.696100   2.480425   1.381072   2.290953   2.292290
     8  C    2.460745   2.868755   2.419366   1.409534   2.650785
     9  C    1.429866   2.471739   2.776895   2.449873   3.870108
    10  C    2.535266   3.813789   4.225731   3.747888   5.087998
    11  C    3.772467   4.921746   5.037376   4.204954   5.332533
    12  C    4.313707   5.159864   4.863743   3.707463   4.518497
    13  O    5.532240   6.328959   5.910362   4.642768   5.194671
    14  O    3.740814   4.249503   3.673200   2.387302   3.103870
    15  H    1.092742   2.159913   3.383616   3.925137   5.329438
    16  H    2.185105   1.090672   2.181125   3.484018   4.466652
    17  H    5.103654   4.674797   3.351450   2.276910   1.085947
    18  H    5.588218   4.515762   3.212634   3.320403   2.250461
    19  H    2.763299   4.155876   4.863491   4.631782   6.029405
    20  H    4.690999   5.919538   6.113990   5.292913   6.390816
                    6          7          8          9         10
     6  C    0.000000
     7  O    1.390899   0.000000
     8  C    3.645066   3.597029   0.000000
     9  C    4.605142   4.147720   1.416666   0.000000
    10  C    5.969786   5.592855   2.443635   1.449707   0.000000
    11  C    6.431779   6.331244   2.795683   2.450092   1.365943
    12  C    5.775834   5.988022   2.444821   2.884768   2.476463
    13  O    6.528845   6.930078   3.526214   4.104797   3.617719
    14  O    4.371191   4.676802   1.381149   2.449401   2.812714
    15  H    5.590975   4.620041   3.439617   2.173670   2.758628
    16  H    4.098946   2.786726   3.959215   3.471054   4.716461
    17  H    2.197612   3.337445   3.129271   4.496923   5.533571
    18  H    1.085974   2.094963   4.712861   5.690173   7.054744
    19  H    6.793032   6.243987   3.430687   2.190744   1.094568
    20  H    7.514598   7.417890   3.884317   3.459912   2.161989
                   11         12         13         14         15
    11  C    0.000000
    12  C    1.467417   0.000000
    13  O    2.403906   1.222715   0.000000
    14  O    2.445959   1.414632   2.256357   0.000000
    15  H    4.116448   4.952602   6.170572   4.617552   0.000000
    16  H    5.907565   6.232741   7.410994   5.339710   2.523524
    17  H    5.514498   4.453336   4.884676   3.099724   6.193945
    18  H    7.487683   6.761695   7.435231   5.347894   6.593469
    19  H    2.144365   3.475241   4.537133   3.907085   2.534979
    20  H    1.090419   2.169641   2.658435   3.409026   4.864825
                   16         17         18         19         20
    16  H    0.000000
    17  H    5.531808   0.000000
    18  H    4.878196   2.755035   0.000000
    19  H    4.883857   6.555230   7.876948   0.000000
    20  H    6.863649   6.507677   8.565272   2.520501   0.000000
 Stoichiometry    C11H6O3
 Framework group  C1[X(C11H6O3)]
 Deg. of freedom    54
 Full point group                 C1      NOp   1
 Largest Abelian subgroup         C1      NOp   1
 Largest concise Abelian subgroup C1      NOp   1
                         Standard orientation:                         
 ---------------------------------------------------------------------
 Center     Atomic      Atomic             Coordinates (Angstroms)
 Number     Number       Type             X           Y           Z
 ---------------------------------------------------------------------
      1          6           0       -0.436711    2.216225   -0.000025
      2          6           0       -1.784013    1.842496    0.000011
      3          6           0       -2.048581    0.462616   -0.000034
      4          6           0       -1.050211   -0.549301   -0.000023
      5          6           0       -1.754326   -1.812452    0.000031
      6          6           0       -3.084858   -1.494313    0.000006
      7          8           0       -3.300630   -0.120252    0.000039
      8          6           0        0.296377   -0.132785   -0.000008
      9          6           0        0.615062    1.247570   -0.000008
     10          6           0        2.021899    1.597511    0.000043
     11          6           0        2.986017    0.629895    0.000023
     12          6           0        2.648883   -0.798269   -0.000146
     13          8           0        3.439703   -1.730811    0.000083
     14          8           0        1.269648   -1.112743   -0.000058
[...]
 9154,0.00002294,0.00000268,-0.00301343,0.00004202,0.00001316,-0.055852
 40,0.00000893,0.00000536,0.00909073,-0.00001791,0.00003918,0.01108445,
 -0.00000502,0.00006466,-0.05064862,-0.00004664,-0.00014276,0.07801605,
 0.04663054,-0.00665923,-0.00000414,-0.02859124,-0.02034711,0.00001427,
 -0.02842611,0.05250652,-0.00002204,-0.28932943,-0.04280910,0.00005880,
 -0.03049829,-0.01148379,0.00000955,0.01232978,-0.00898004,0.00000311,0
 .00003692,0.00603368,-0.00000011,0.66835063,0.01874621,-0.04567848,0.0
 0001878,-0.01774318,-0.00745447,0.00000722,0.02208502,0.02428273,-0.00
 001777,-0.01994679,-0.10426751,0.00003187,-0.03100234,0.00445492,0.000
 00097,0.00079635,-0.01466860,0.00000763,0.00856153,0.00131907,0.000001
 76,0.01947747,0.58877226,-0.00001568,0.00002276,-0.00042392,0.00001302
 ,0.00000704,0.00182286,-0.00000580,-0.00002272,-0.00612123,0.00004769,
 0.00003530,-0.05017213,0.00002034,-0.00000139,0.00019741,-0.00000165,0
 .00001052,0.00244492,-0.00000465,0.00000035,0.00528620,-0.00009242,-0.
 00022251,0.13806004,-0.15144132,0.09000724,-0.00002721,-0.04181372,0.0
 1485517,-0.00000024,0.00334910,0.01180607,-0.00000608,-0.01707000,-0.0
 3090849,0.00001934,-0.00104255,0.00269363,-0.00000065,-0.00029647,0.00
 356688,-0.00000108,-0.00690702,-0.00390463,0.00000229,-0.14535315,-0.0
 6542835,0.00004419,0.63893063,0.05483424,-0.22132385,0.00007247,0.0451
 7999,0.02401721,-0.00001683,-0.00131189,-0.03745704,0.00001785,-0.0494
 3143,0.00707822,0.00000574,0.01141548,0.00550789,-0.00000216,-0.008031
 83,0.00590839,-0.00000128,0.00299556,-0.00488901,-0.00000028,-0.046191
 76,-0.23089999,0.00009064,-0.02023076,0.61769962,-0.00001041,0.0000669
 4,-0.05244152,-0.00001435,-0.00001270,0.00343716,-0.00000023,0.0000159
 6,-0.00102260,0.00002731,0.00000331,0.00419772,-0.00000509,-0.00000083
 ,0.00454181,0.00000441,-0.00000345,0.00059491,-0.00000033,0.00000265,-
 0.00139142,0.00003497,0.00009210,-0.05993387,-0.00007132,-0.00023243,0
 .12746369,-0.03744804,0.01598671,-0.00000202,0.01019049,0.00685786,-0.
 00000394,-0.00433018,-0.00527973,0.00000307,0.00147634,-0.00053224,0.0
 0000057,-0.00066964,-0.00001377,0.00000012,0.00044912,-0.00234563,0.00
 000090,0.00413833,0.00274834,-0.00000173,-0.02158794,-0.04474572,0.000
 02563,-0.25301021,-0.00845246,0.00003495,0.61799243,0.03499594,0.00214
 649,-0.00000682,-0.00018394,-0.00643350,0.00000564,0.00115938,-0.00012
 540,-0.00000056,-0.00303036,-0.00670417,0.00000586,-0.00080201,0.00085
 611,-0.00000004,-0.00027410,-0.00008944,-0.00000011,-0.00044166,-0.000
 16983,0.00000019,-0.03153251,0.01042865,0.00000160,-0.03281834,-0.1058
 9131,0.00003044,-0.03477845,0.74210108,-0.00001093,-0.00000389,-0.0003
 7428,-0.00000080,0.00000451,0.00525204,-0.00000022,0.00000055,-0.00091
 715,0.00000216,0.00000517,0.00387744,0.00000053,0.00000010,0.00087972,
 0.00000003,0.00000003,-0.00060353,-0.00000024,-0.00000018,0.00021643,0
 .00001898,0.00000373,0.00348830,0.00004735,0.00002645,-0.05447582,-0.0
 0006127,-0.00029655,0.12875025,-0.00167461,-0.00506269,0.00000333,-0.0
 0138183,0.00063459,-0.00000016,0.00126482,-0.00034948,-0.00000001,-0.0
 0262398,0.00151939,-0.00000011,0.00085395,0.00031827,-0.00000028,-0.00
 035218,0.00094394,-0.00000036,-0.00127377,-0.00081653,0.00000044,0.003
 57607,-0.00340441,0.00000127,-0.03225832,0.03106070,-0.00000942,-0.217
 10206,0.16037707,-0.00005123,0.71359796,-0.01144713,0.00750259,-0.0000
 0025,0.00608154,0.00522668,-0.00000342,-0.00270297,-0.00535080,0.00000
 295,-0.00190133,0.00130854,0.00000004,-0.00012602,0.00001186,-0.000000
 18,0.00007867,-0.00161930,0.00000077,0.00318755,0.00203830,-0.00000146
 ,0.00222678,-0.02686327,0.00001288,0.03811631,0.01253532,-0.00001068,0
 .12653594,-0.33078448,0.00012062,-0.09706046,0.63759331,0.00000652,-0.
 00000115,0.00358299,-0.00000278,-0.00000276,-0.00012798,0.00000115,0.0
 0000265,-0.00002601,0.00000144,-0.00000039,0.00106584,-0.00000009,-0.0
 0000013,-0.00014992,0.00000002,0.00000073,0.00008715,-0.00000147,-0.00
 000100,-0.00019690,-0.00000170,0.00001406,0.00071244,-0.00001282,-0.00
 000926,0.00404863,-0.00003381,0.00011497,-0.04563825,-0.00005601,-0.00
 024834,0.09882669,0.00639109,-0.00644593,0.00000194,-0.00680175,-0.008
 83912,0.00000513,0.00036870,0.01133655,-0.00000508,0.01491046,-0.01045
 596,0.00000315,-0.00099303,-0.00129310,0.00000109,0.00081420,0.0031407
 7,-0.00000139,-0.00196533,-0.00303985,0.00000160,-0.04816052,0.0709094
 3,-0.00002867,-0.01755328,-0.01472697,0.00000933,0.04870437,0.00689365
 ,-0.00001183,-0.12803225,-0.03756377,0.00002910,0.41250494,0.00404410,
 -0.00472532,0.00000146,-0.00386343,-0.00309125,0.00000197,0.00342421,0
 .00432382,-0.00000161,0.00255554,-0.00401347,0.00000267,-0.00007002,0.
 00051022,-0.00000025,-0.00048667,0.00154949,-0.00000077,-0.00405438,-0
 .00257574,0.00000158,0.02685044,0.01612621,-0.00001519,-0.01272155,-0.
 00509256,0.00000208,0.01786049,-0.04463139,0.00001833,-0.06353328,-0.1
 8085401,0.00006848,-0.17323796,0.90243437,-0.00000315,0.00000316,-0.00
 035317,0.00000296,0.00000293,-0.00007893,-0.00000143,-0.00000292,0.001
 88400,-0.00000336,0.00000442,0.00207257,0.00000009,-0.00000025,-0.0004
 2956,0.00000015,-0.00000129,0.00003563,0.00000230,0.00000171,-0.000341
 06,-0.00000611,-0.00002276,-0.00861348,0.00000770,0.00000173,-0.005616
 24,-0.00001628,0.00001936,-0.00159742,0.00004084,0.00006243,-0.0661774
 3,0.00003478,-0.00030702,0.16717195,-0.00002219,0.00030768,-0.00000015
 ,0.00017653,0.00151127,-0.00000068,0.00005234,-0.00177883,0.00000071,-
 0.00184787,0.00510874,-0.00000221,0.00001145,0.00019295,-0.00000013,-0
 .00001860,-0.00086232,0.00000031,-0.00054595,0.00085409,-0.00000025,-0
 .00138014,-0.01385062,0.00000803,-0.00075197,0.00262924,-0.00000116,-0
 .00285234,-0.00471988,0.00000338,0.01711284,0.00297205,-0.00000037,-0.
 19893364,0.24171913,-0.00008506,0.25122204,-0.00167121,0.00246526,-0.0
 0000112,0.00221691,0.00069470,-0.00000062,-0.00155889,-0.00170325,0.00
 000080,-0.00137287,-0.00244905,0.00000151,0.00033079,-0.00027292,0.000
 00010,0.00021336,-0.00005835,0.00000016,0.00243399,0.00075820,-0.00000
 077,0.00112045,0.00008230,0.00000194,0.00647676,0.00185569,-0.00000183
 ,-0.01553782,0.00334033,0.00000253,0.02262884,-0.06641716,0.00003540,0
 .23723878,-0.57570847,0.00018913,-0.29821499,0.63559881,0.00000082,-0.
 00000142,-0.00036635,-0.00000109,-0.00000055,0.00016447,0.00000065,0.0
 0000087,-0.00051155,0.00000102,0.00000037,0.00026866,-0.00000012,0.000
 00022,0.00018867,-0.00000011,0.00000020,0.00000223,-0.00000106,-0.0000
 0056,-0.00000323,0.00000028,0.00000480,0.00510802,-0.00000278,-0.00000
 100,0.00044101,0.00000822,0.00000111,0.00367922,-0.00000962,0.00004030
 ,0.02032227,-0.00008280,0.00018662,-0.06303197,0.00009658,-0.00022224,
 0.02804472,-0.00993089,0.00247151,0.00000149,0.00641308,0.00997688,-0.
 00000573,-0.00195857,-0.01744469,0.00000927,-0.04429973,0.05336817,-0.
 00001871,0.00541550,0.00115864,-0.00000183,-0.00155778,-0.00026659,0.0
 0000016,-0.00115431,0.00256222,-0.00000118,-0.13127901,0.05404295,-0.0
 0001269,0.02751641,0.01123375,-0.00000856,-0.02849558,0.00818410,0.000
 00042,-0.03247222,-0.03212646,0.00002138,-0.06820189,-0.04463468,0.000
 02543,-0.06459848,0.04466859,-0.00000847,0.34456149,-0.00088274,-0.004
 30602,0.00000523,-0.00375277,-0.00575838,0.00000261,-0.00372346,0.0075
 4001,-0.00000051,0.02470441,-0.00242355,-0.00000108,-0.00205826,-0.000
 86354,-0.00000010,0.00236213,0.00091510,-0.00000057,-0.00200187,0.0010
 8884,-0.00000005,0.05402224,-0.21318424,0.00007482,0.00925476,-0.04779
 127,0.00002581,0.02003019,-0.00265470,-0.00000330,-0.02382596,0.017702
 65,-0.00000115,-0.05016445,-0.10677581,0.00004038,0.06272902,0.0026926
 0,-0.00000688,-0.08712513,0.35833213,0.00000282,0.00000481,0.00621532,
 0.00000074,0.00000075,-0.00129889,0.00000261,0.00000133,0.00510440,-0.
 00000521,-0.00000552,0.00283611,-0.00000009,-0.00000089,-0.00229135,-0
 .00000100,-0.00000048,0.00003097,0.00000134,-0.00000067,0.00010223,-0.
 00001237,0.00007528,-0.03953342,-0.00000728,0.00002530,0.00823966,-0.0
 0000584,-0.00000118,-0.00255890,0.00001762,0.00000082,0.00783094,0.000
 02808,0.00003818,-0.03738292,-0.00001716,-0.00000386,0.00963780,-0.000
 00442,-0.00013782,0.04112247,-0.10428074,-0.10309854,0.00006119,-0.009
 07527,-0.02839162,0.00001545,-0.00488876,0.00175357,0.00000101,-0.0004
 8074,0.00027958,-0.00000015,0.00027669,-0.00014898,0.,-0.00055525,0.00
 051124,-0.00000007,-0.00039542,-0.00220725,0.00000118,-0.00253551,0.00
 221295,0.00000007,0.00944382,0.01624766,-0.00000905,0.00140200,0.00126
 130,-0.00000135,0.00002230,-0.00046762,0.00000022,0.00070433,0.0002275
 1,-0.00000022,-0.00015009,-0.00012519,0.00000008,0.00023281,0.00128521
 ,-0.00000058,0.10926311,-0.10370145,-0.27271422,0.00013256,0.00094801,
 0.00138482,0.00000017,0.00023322,0.00144139,0.00000223,0.00035273,0.00
 007256,-0.00000048,0.00007532,0.00004967,-0.00000005,-0.00006416,0.000
 18052,-0.00000008,-0.00000486,-0.00004666,0.00000066,0.00398691,-0.000
 92199,0.00000189,-0.01124877,-0.01924578,0.00001172,-0.00238443,0.0009
 7805,-0.00000157,0.00053049,0.00006010,-0.00000016,-0.00120927,0.00030
 577,0.00000003,0.00037969,-0.00016882,-0.00000001,-0.00003803,-0.00151
 024,0.00000105,0.11119634,0.28911445,0.00006134,0.00013214,-0.02985003
 ,0.00000113,0.00000515,0.00209082,0.00000205,0.00000225,0.00622921,-0.
 00000029,-0.00000068,-0.00090653,0.00000007,0.00000009,-0.00002853,0.0
 0000003,0.00000003,-0.00000288,0.00000006,0.00000076,0.00138683,-0.000
 00063,0.00000238,0.00429616,0.00000423,0.00000695,0.00142928,0.0000003
 6,-0.00000212,-0.00309062,-0.00000026,0.,-0.00007525,0.00000044,-0.000
 00016,-0.00002490,-0.00000016,0.00000006,-0.00005022,0.00000006,0.0000
 0076,0.00065484,-0.00006719,-0.00014533,0.02214587,-0.01210523,0.02535
 365,-0.00001016,-0.15017159,0.13038648,-0.00004264,0.01066055,-0.01077
 731,0.00000357,-0.00100368,-0.00217686,0.00000205,0.00041337,-0.000620
 49,0.00000032,0.00019903,-0.00016344,-0.00000006,0.00105342,0.00171815
 ,-0.00000134,-0.00072840,-0.00062935,0.00000033,-0.00404755,-0.0025293
 3,0.00000313,-0.00002257,0.00139454,-0.00000053,-0.00046006,-0.0000400
 0,0.00000004,-0.00018085,-0.00030765,0.00000019,0.00002426,0.00013594,
 -0.00000006,0.00034512,0.00009144,-0.00000024,0.00118940,-0.00019697,-
 0.00000080,0.15511952,-0.00309380,0.00672099,-0.00000248,0.13022318,-0
 .23480122,0.00007727,0.01930989,-0.01799346,0.00000626,-0.00327928,-0.
 00186612,0.00000394,0.00080589,-0.00079913,0.00000031,0.00001312,-0.00
 100292,0.00000018,0.00050749,0.00277975,-0.00000254,-0.00130127,-0.000
 36575,0.00000021,-0.00149499,0.00122403,0.00000314,-0.00012948,0.00024
 739,0.00000029,-0.00000928,0.00000634,-0.00000014,-0.00014808,0.000032
 25,0.00000002,0.00004865,-0.00002311,0.00000001,0.00031305,0.00003776,
 -0.00000045,0.00027753,0.00069468,-0.00000235,-0.14161958,0.24521324,0
 .00000366,-0.00000725,0.00060567,-0.00004294,0.00007749,-0.02873064,-0
 .00001049,0.00001122,0.00188610,0.00000236,0.00000344,0.00498901,-0.00
 000026,0.00000049,0.00014860,-0.00000018,0.00000035,-0.00038987,-0.000
 00064,-0.00000286,-0.00270969,0.00000056,0.,-0.00034713,0.00000260,0.0
 0000351,0.00730236,0.00000025,0.00000001,0.00081092,0.00000005,-0.0000
 0008,-0.00027787,0.00000020,0.00000002,0.00002658,-0.00000007,0.000000
 06,0.00002612,-0.00000046,-0.00000035,-0.00083571,-0.00000099,-0.00000
 229,-0.00418868,0.00004613,-0.00008381,0.02163418,0.00004605,0.0000474
 8,-0.00000004,0.00127628,-0.00052677,0.00000005,-0.00553741,-0.0033948
 8,0.00000324,0.01047846,-0.01839629,0.00000715,-0.06708673,0.06180686,
 -0.00002989,0.00366461,0.02345737,-0.00001068,-0.00337120,0.00445446,-
 0.00000187,0.00135467,-0.00004035,-0.00000025,-0.00007692,0.00007384,-
 0.00000001,0.00015186,-0.00003690,-0.00000002,0.00006924,0.00013084,-0
 .00000007,-0.00037167,0.00004379,0.00000004,0.00004296,0.00011673,-0.0
 0000008,-0.00042007,0.00044955,-0.00000017,-0.00000147,0.00000857,0.,-
 0.00017092,-0.00037098,0.00000017,0.05991079,0.00002951,0.00010387,-0.
 00000019,0.00073551,-0.00049060,0.00000049,-0.00182641,-0.00156337,0.0
 0000304,0.00667441,-0.01003813,0.00000297,0.06317090,-0.33153513,0.000
 15870,-0.00265232,-0.00411458,-0.00000017,-0.00005065,0.00163405,0.000
 00456,0.00135932,-0.00035006,-0.00000055,-0.00015471,-0.00007381,0.000
 00009,0.00011466,-0.00006223,0.00000003,0.00003401,0.00007130,-0.00000
 004,-0.00022206,0.00012338,-0.00000003,-0.00002601,0.00003323,-0.00000
 004,-0.00017946,0.00054712,-0.00000040,-0.00002349,-0.00000406,0.00000
 003,-0.00016087,-0.00016507,0.00000014,-0.06717280,0.34584642,-0.00000
 006,-0.00000027,-0.00027364,-0.00000045,0.00000080,0.00062639,0.000002
 65,0.00000255,0.00308609,-0.00000476,0.00000772,-0.00084048,-0.0000302
 4,0.00015624,-0.02565366,0.00000097,0.00000136,-0.00289498,0.00000056,
 0.00000057,0.00865381,-0.00000096,-0.00000030,-0.00104015,0.00000003,0
 .00000006,0.00004958,-0.00000002,0.00000004,0.00003187,-0.00000004,0.,
 0.00000337,0.00000018,-0.00000015,0.00000080,-0.00000003,0.,-0.0000484
 9,0.00000003,-0.00000043,-0.00023841,0.00000001,0.00000002,0.00004401,
 0.00000013,0.00000016,0.00008574,0.00003225,-0.00016728,0.02071544,0.0
 0013040,0.00012423,-0.00000008,0.00030762,-0.00006161,-0.00000009,0.00
 128213,0.00175989,-0.00000056,-0.00294470,0.00217919,-0.00000114,-0.00
 734906,-0.01237072,0.00000859,-0.31242125,-0.10122575,0.00006468,0.003
 91002,0.00109283,-0.00000050,0.00010367,-0.00085756,0.00000029,-0.0004
 7312,0.00017743,0.00000002,0.00004823,-0.00013446,0.00000007,-0.000013
 86,0.00005178,-0.00000003,0.00007868,-0.00011427,0.00000005,-0.0000524
 4,0.00008932,-0.00000003,-0.00000408,-0.00010003,0.00000005,0.00002999
 ,-0.00000510,-0.00000002,-0.00001822,-0.00004192,0.00000004,0.00003573
 ,0.00035767,-0.00000026,0.31739931,0.00035592,-0.00068257,0.00000045,-
 0.00205064,0.00037812,0.00000076,0.00355984,-0.00550786,0.00000190,0.0
 0354662,-0.00162514,0.00000396,0.00999543,0.01214596,-0.00000675,-0.09
 115863,-0.08713104,0.00003536,-0.03238341,-0.01712570,0.00000985,-0.00
 032739,0.00109275,-0.00000004,0.00026478,0.00006259,-0.00000047,0.0001
 0629,0.00013185,-0.00000012,-0.00002263,0.00008434,-0.00000003,-0.0002
 0099,-0.00005493,0.00000006,0.00003561,0.00001846,-0.00000003,0.000000
 12,0.00001904,0.00000011,-0.00019027,0.00000519,-0.00000015,0.00003743
 ,0.00003767,-0.00000003,-0.00070160,0.00001307,-0.00000108,0.10908125,
 0.09812516,0.00000054,0.00000040,0.00025319,0.00000063,0.00000009,0.00
 183952,0.00000051,0.00000389,0.00204503,-0.00000050,0.00000498,0.00580
 375,-0.00000683,-0.00000554,0.00152385,0.00006594,0.00003779,-0.023181
 51,0.00001120,0.00000386,-0.00417287,-0.00000034,0.00000010,0.00120827
 ,-0.00000036,0.00000016,-0.00065238,-0.00000017,-0.00000012,-0.0001233
 7,0.00000005,-0.00000006,0.00001008,-0.00000019,0.00000014,0.00000074,
 0.00000007,-0.00000014,-0.00002370,0.00000040,-0.00000025,0.00018623,0
 .,-0.00000024,-0.00051219,-0.00000003,0.00000001,0.00004695,0.00000019
 ,-0.00000134,-0.00232887,-0.00007108,-0.00004374,0.01804416,0.00169766
 ,-0.00184432,0.00000026,0.00001997,0.00043934,-0.00000023,0.00024926,-
 0.00017898,0.00000007,-0.00011545,-0.00185525,0.00000094,-0.00035020,0
 .00023439,-0.00000013,-0.00001949,-0.00023267,0.00000011,-0.00005188,0
 .00018922,-0.00000007,-0.00578191,0.00203376,0.00000057,-0.00905700,-0
 .02761991,0.00001571,-0.10683442,-0.10350289,0.00006214,0.01152019,0.0
 1662277,-0.00000924,-0.00317196,0.00258458,0.00000116,0.00072634,0.000
 88634,-0.00000093,0.00104213,0.00042303,-0.00000059,-0.00020263,0.0011
 0509,-0.00000044,-0.00002733,0.00000284,0.,-0.00001337,-0.00001508,0.0
 0000001,-0.00004389,0.00004739,-0.00000002,0.10952244,0.00128881,0.000
 80287,-0.00000156,-0.00039182,0.00004558,0.,0.00020496,0.00014181,-0.0
 0000012,0.00004801,0.00000307,-0.00000017,-0.00000466,0.00005316,-0.00
 000013,-0.00000261,-0.00000449,0.00000002,-0.00021705,-0.00002403,0.00
 000006,0.00013489,0.00106145,0.00000141,0.00043988,0.00060857,0.000001
 78,-0.10281701,-0.26776775,0.00012930,-0.01289900,-0.01920657,0.000015
 00,0.00468475,-0.00006749,0.00000522,-0.00055221,-0.00194824,-0.000000
 35,-0.00029035,0.00024193,-0.00000087,-0.00058436,0.00033315,0.0000000
 6,-0.00002570,0.00000020,0.00000004,0.00000844,-0.00000353,0.,-0.00000
 176,0.00000563,0.00000002,0.11084278,0.28464272,-0.00000114,-0.0000010
 8,-0.00189393,0.00000013,-0.00000016,-0.00004298,-0.00000009,0.,-0.000
 00129,-0.00000008,0.00000016,-0.00030341,0.00000004,-0.00000016,-0.000
 18558,-0.00000002,0.00000008,0.00003938,0.00000009,-0.00000004,0.00001
 889,0.00000150,0.00000110,0.00381307,0.00000150,0.00000621,0.00429618,
 0.00006214,0.00012937,-0.03951597,0.00000565,0.00001043,0.00655212,-0.
 00000006,0.00000519,0.01211928,-0.00000031,-0.00000016,-0.00268448,-0.
 00000013,-0.00000098,-0.00158240,0.00000036,-0.00000024,0.00019772,0.0
 0000003,0.00000003,0.00005910,0.,0.,0.00000849,0.,0.,0.00002075,-0.000
 06841,-0.00014651,0.02452761,-0.00068397,-0.00041229,0.00000045,0.0000
 5815,0.00044168,-0.00000033,0.00004018,-0.00018090,0.00000009,-0.00015
 575,0.00011666,-0.00000021,-0.00002359,0.00001521,-0.00000002,0.000004
 40,-0.00011736,0.00000005,0.00002913,0.00010285,-0.00000003,0.00126938
 ,-0.00121701,0.00000037,0.00191264,0.00267846,0.00000011,-0.01220019,-
 0.00201046,0.00000335,-0.33037223,-0.01256847,0.00005853,-0.01011062,0
 .00371411,-0.00000007,0.00178496,-0.00007583,-0.00000050,-0.00115391,-
 0.00171732,0.00000169,0.00000145,0.00003669,0.00000003,-0.00006826,-0.
 00001300,0.,0.00001911,0.00000787,0.,-0.00000517,0.00000488,0.,0.00089
 153,0.00013402,-0.00000121,0.34876276,0.00092272,0.00089237,-0.0000001
 5,0.00031239,-0.00020063,-0.00000027,-0.00016665,-0.00034903,0.0000002
 4,-0.00035709,0.00043510,-0.00000066,0.00007934,0.00001222,-0.00000004
 ,0.00002903,-0.00005807,0.00000003,0.00008487,0.00014492,-0.00000004,0
 .00191351,-0.00296596,0.00000103,0.00142911,-0.00383293,0.00000637,0.0
 2677625,0.00508424,-0.00000603,-0.01106357,-0.05304574,0.00001325,-0.0
 2665642,0.00218495,0.00000369,0.00151676,0.00120977,-0.00000143,-0.005
 87459,-0.00384941,0.00000454,-0.00001557,-0.00000859,0.00000013,0.0001
 2993,0.00002247,-0.00000011,0.00004262,0.00002814,-0.00000001,-0.00000
 044,0.00000741,0.,-0.00016243,0.00108194,-0.00000324,0.01106021,0.0532
 0684,-0.00000031,0.00000004,0.00080252,-0.00000023,-0.00000025,-0.0006
 4367,0.00000008,0.00000024,0.00008618,0.00000009,-0.00000073,-0.001011
 98,-0.00000003,-0.00000004,-0.00001197,-0.00000002,0.00000005,0.000001
 45,-0.00000001,-0.00000006,0.00008244,-0.00000120,0.00000157,-0.000252
 36,0.00000059,0.00000618,0.00949186,-0.00001114,-0.00000110,0.00190912
 ,0.00005825,0.00001324,-0.03037291,0.00001502,-0.00000157,0.00033554,-
 0.00000135,-0.00000096,-0.00116318,0.00000354,0.00000386,0.00376103,0.
 00000005,0.00000012,0.00025510,-0.00000008,-0.00000008,-0.00014175,-0.
 00000002,0.,0.00001309,0.,0.,0.00001236,-0.00000094,-0.00000320,-0.005
 44253,-0.00006229,-0.00001729,0.02228966\\0.00001526,0.00005336,0.0000
 0142,-0.00000466,0.00000941,-0.00000055,-0.00020492,0.00018846,0.00000
 114,0.00011533,-0.00029248,0.00001281,0.00009387,-0.00001574,-0.000018
 93,-0.00004679,0.00026986,0.00002400,0.00005027,-0.00016360,-0.0000184
 3,0.00006326,0.00025468,0.00000205,-0.00008247,-0.00016323,-0.00000034
 ,0.00010280,0.00000701,-0.00000045,0.00000079,0.00003001,0.00000209,0.
 00007230,0.00000910,-0.00000934,-0.00004463,0.00000100,0.00000386,-0.0
 0005359,-0.00012244,0.00000232,-0.00000401,0.00000548,-0.00000028,-0.0
 0001870,0.00000333,-0.00000004,-0.00003912,-0.00001226,-0.00000422,0.0
 0000511,-0.00004176,0.00000242,-0.00003734,0.00002701,-0.00000025,0.00
 001723,-0.00004717,0.00000076\\\@


 SUCCESS IS COUNTED SWEETEST
 BY THOSE WHO NE'ER SUCCEED.
 TO COMPREHEND NECTAR
 REQUIRES SOREST NEED.
           EMILY DICKINSON
 Job cpu time:  0 days  0 hours 14 minutes 35.9 seconds.
 File lengths (MBytes):  RWF=    145 Int=      0 D2E=      0 Chk=      5 Scr=      1
 Normal termination of Gaussian 09 at Wed Aug 21 16:54:00 2019.
