 Entering Gaussian System, Link 0=g09
 Initial command:
 /media/mateus/HDD/gaussian-09d01/pgi-14.3/g09/l1.exe "/media/mateus/HDD/gaussian-09d01/pgi-14.3/Gau-24938.inp" -scrdir="/media/mateus/HDD/gaussian-09d01/pgi-14.3/"
 Entering Link 1 = /media/mateus/HDD/gaussian-09d01/pgi-14.3/g09/l1.exe PID=     24940.
  
 Copyright (c) 1988,1990,1992,1993,1995,1998,2003,2009,2013,
            Gaussian, Inc.  All Rights Reserved.
  
 This is part of the Gaussian(R) 09 program.  It is based on
 the Gaussian(R) 03 system (copyright 2003, Gaussian, Inc.),
 the Gaussian(R) 98 system (copyright 1998, Gaussian, Inc.),
 the Gaussian(R) 94 system (copyright 1995, Gaussian, Inc.),
 the Gaussian 92(TM) system (copyright 1992, Gaussian, Inc.),
 the Gaussian 90(TM) system (copyright 1990, Gaussian, Inc.),
 the Gaussian 88(TM) system (copyright 1988, Gaussian, Inc.),
 the Gaussian 86(TM) system (copyright 1986, Carnegie Mellon
 University), and the Gaussian 82(TM) system (copyright 1983,
 Carnegie Mellon University). Gaussian is a federally registered
 trademark of Gaussian, Inc.
  
 This software contains proprietary and confidential information,
 including trade secrets, belonging to Gaussian, Inc.
  
 This software is provided under written license and may be
 used, copied, transmitted, or stored only in accord with that
 written license.
  
 The following legend is applicable only to US Government
 contracts under FAR:
  
                    RESTRICTED RIGHTS LEGEND
  
 Use, reproduction and disclosure by the US Government is
 subject to restrictions as set forth in subparagraphs (a)
 and (c) of the Commercial Computer Software - Restricted
 Rights clause in FAR 52.227-19.
  
 Gaussian, Inc.
 340 Quinnipiac St., Bldg. 40, Wallingford CT 06492
  
  
 ---------------------------------------------------------------
 Warning -- This program may not be used in any manner that
 competes with the business of Gaussian, Inc. or will provide
 assistance to any competitor of Gaussian, Inc.  The licensee
 of this program is prohibited from giving any competitor of
 Gaussian, Inc. access to this program.  By using this program,
 the user acknowledges that Gaussian, Inc. is engaged in the
 business of creating and licensing software in the field of
 computational chemistry and represents and warrants to the
 licensee that it is not a competitor of Gaussian, Inc. and that
 it will not use this program in any manner prohibited above.
 ---------------------------------------------------------------
  

 Cite this work as:
 Gaussian 09, Revision D.01,
 M. J. Frisch, G. W. Trucks, H. B. Schlegel, G. E. Scuseria, 
 M. A. Robb, J. R. Cheeseman, G. Scalmani, V. Barone, B. Mennucci, 
 G. A. Petersson, H. Nakatsuji, M. Caricato, X. Li, H. P. Hratchian, 
 A. F. Izmaylov, J. Bloino, G. Zheng, J. L. Sonnenberg, M. Hada, 
 M. Ehara, K. Toyota, R. Fukuda, J. Hasegawa, M. Ishida, T. Nakajima, 
 Y. Honda, O. Kitao, H. Nakai, T. Vreven, J. A. Montgomery, Jr., 
 J. E. Peralta, F. Ogliaro, M. Bearpark, J. J. Heyd, E. Brothers, 
 K. N. Kudin, V. N. Staroverov, T. Keith, R. Kobayashi, J. Normand, 
 K. Raghavachari, A. Rendell, J. C. Burant, S. S. Iyengar, J. Tomasi, 
 M. Cossi, N. Rega, J. M. Millam, M. Klene, J. E. Knox, J. B. Cross, 
 V. Bakken, C. Adamo, J. Jaramillo, R. Gomperts, R. E. Stratmann, 
 O. Yazyev, A. J. Austin, R. Cammi, C. Pomelli, J. W. Ochterski, 
 R. L. Martin, K. Morokuma, V. G. Zakrzewski, G. A. Voth, 
 P. Salvador, J. J. Dannenberg, S. Dapprich, A. D. Daniels, 
 O. Farkas, J. B. Foresman, J. V. Ortiz, J. Cioslowski, 
 and D. J. Fox, Gaussian, Inc., Wallingford CT, 2013.
 
 ******************************************
 Gaussian 09:  ES64L-G09RevD.01 24-Apr-2013
                 1-Oct-2019 
 ******************************************
 %nprocs=8
 Will use up to    8 processors via shared memory.
 %mem=16GB
 %chk=/home/mateus/github/db_singletoxygen/chk/molecule_0.chk
 ------------------------
 #opt freq b3lyp/6-31g(d)
 ------------------------
 1/14=-1,18=20,19=15,26=3,38=1/1,3;
 2/9=110,12=2,17=6,18=5,40=1/2;
 3/5=1,6=6,7=1,11=2,16=1,25=1,30=1,71=1,74=-5/1,2,3;
 4//1;
 5/5=2,38=5/2;
 6/7=2,8=2,9=2,10=2,28=1/1;
 7//1,2,3,16;
 1/14=-1,18=20,19=15,26=3/3(2);
 2/9=110/2;
 99//99;
 2/9=110/2;
 3/5=1,6=6,7=1,11=2,16=1,25=1,30=1,71=1,74=-5/1,2,3;
 4/5=5,16=3,69=1/1;
 5/5=2,38=5/2;
 7//1,2,3,16;
 1/14=-1,18=20,19=15,26=3/3(-5);
 2/9=110/2;
 6/7=2,8=2,9=2,10=2,19=2,28=1/1;
 99/9=1/99;
 --------------
 molecule_0 C=C
 --------------
 Symbolic Z-matrix:
 Charge =  0 Multiplicity = 1
 C                     0.94587   0.00818  -0.07429 
 C                     2.28166   0.00818  -0.07429 
 H                     0.38601   0.90925   0.15571 
 H                     0.38601  -0.8929   -0.30429 
 H                     2.84152   0.90925   0.15571 
 H                     2.84152  -0.8929   -0.30429 
 

 GradGradGradGradGradGradGradGradGradGradGradGradGradGradGradGradGradGrad
 Berny optimization.
 Initialization pass.
                           ----------------------------
                           !    Initial Parameters    !
                           ! (Angstroms and Degrees)  !
 --------------------------                            --------------------------
 ! Name  Definition              Value          Derivative Info.                !
 --------------------------------------------------------------------------------
 ! R1    R(1,2)                  1.3358         estimate D2E/DX2                !
 ! R2    R(1,3)                  1.0855         estimate D2E/DX2                !
 ! R3    R(1,4)                  1.0855         estimate D2E/DX2                !
 ! R4    R(2,5)                  1.0855         estimate D2E/DX2                !
 ! R5    R(2,6)                  1.0855         estimate D2E/DX2                !
 ! A1    A(2,1,3)              121.049          estimate D2E/DX2                !
 ! A2    A(2,1,4)              121.0487         estimate D2E/DX2                !
 ! A3    A(3,1,4)              117.9022         estimate D2E/DX2                !
 ! A4    A(1,2,5)              121.049          estimate D2E/DX2                !
 ! A5    A(1,2,6)              121.0487         estimate D2E/DX2                !
 ! A6    A(5,2,6)              117.9022         estimate D2E/DX2                !
 ! D1    D(3,1,2,5)              0.0            estimate D2E/DX2                !
 ! D2    D(3,1,2,6)            179.9998         estimate D2E/DX2                !
 ! D3    D(4,1,2,5)           -179.9998         estimate D2E/DX2                !
 ! D4    D(4,1,2,6)              0.0            estimate D2E/DX2                !
 --------------------------------------------------------------------------------
 Trust Radius=3.00D-01 FncErr=1.00D-07 GrdErr=1.00D-06
 Number of steps in this run=     25 maximum allowed number of steps=    100.
 GradGradGradGradGradGradGradGradGradGradGradGradGradGradGradGradGradGrad

                          Input orientation:                          
 ---------------------------------------------------------------------
 Center     Atomic      Atomic             Coordinates (Angstroms)
 Number     Number       Type             X           Y           Z
 ---------------------------------------------------------------------
      1          6           0        0.945870    0.008180   -0.074290
      2          6           0        2.281660    0.008180   -0.074290
      3          1           0        0.386010    0.909250    0.155710
      4          1           0        0.386010   -0.892900   -0.304290
      5          1           0        2.841520    0.909250    0.155710
      6          1           0        2.841520   -0.892900   -0.304290
 ---------------------------------------------------------------------
                    Distance matrix (angstroms):
                    1          2          3          4          5
     1  C    0.000000
     2  C    1.335790   0.000000
     3  H    1.085482   2.111472   0.000000
     4  H    1.085490   2.111477   1.859931   0.000000
     5  H    2.111472   1.085482   2.455510   3.080402   0.000000
     6  H    2.111477   1.085490   3.080402   2.455510   1.859931
                    6
     6  H    0.000000
 Stoichiometry    C2H4
 Framework group  CS[X(C2H4)]
 Deg. of freedom     6
 Full point group                 CS      NOp   2
 Largest Abelian subgroup         CS      NOp   2
 Largest concise Abelian subgroup CS      NOp   2
                         Standard orientation:                         
 ---------------------------------------------------------------------
 Center     Atomic      Atomic             Coordinates (Angstroms)
 Number     Number       Type             X           Y           Z
 ---------------------------------------------------------------------
      1          6           0       -0.000001    0.000000    0.667895
      2          6           0       -0.000001    0.000000   -0.667895
      3          1           0       -0.929962    0.000001    1.227755
      4          1           0        0.929969    0.000001    1.227755
      5          1           0       -0.929962    0.000001   -1.227755
      6          1           0        0.929969    0.000001   -1.227755
 ---------------------------------------------------------------------
 Rotational constants (GHZ):    144.9566768     30.1130567     24.9334282
 Standard basis: 6-31G(d) (6D, 7F)
 There are    19 symmetry adapted cartesian basis functions of A'  symmetry.
 There are    19 symmetry adapted cartesian basis functions of A"  symmetry.
 There are    19 symmetry adapted basis functions of A'  symmetry.
 There are    19 symmetry adapted basis functions of A"  symmetry.
    38 basis functions,    72 primitive gaussians,    38 cartesian basis functions
     8 alpha electrons        8 beta electrons
       nuclear repulsion energy        33.3200629359 Hartrees.
 NAtoms=    6 NActive=    6 NUniq=    3 SFac= 4.00D+00 NAtFMM=   60 NAOKFM=F Big=F
 Integral buffers will be    131072 words long.
 Raffenetti 2 integral format.
 Two-electron integral symmetry is turned on.
 One-electron integrals computed using PRISM.
 NBasis=    38 RedAO= T EigKep=  5.43D-03  NBF=    19    19
 NBsUse=    38 1.00D-06 EigRej= -1.00D+00 NBFU=    19    19
 ExpMin= 1.61D-01 ExpMax= 3.05D+03 ExpMxC= 4.57D+02 IAcc=1 IRadAn=         1 AccDes= 0.00D+00
 Harris functional with IExCor=  402 and IRadAn=       1 diagonalized for initial guess.
 HarFok:  IExCor=  402 AccDes= 0.00D+00 IRadAn=         1 IDoV= 1 UseB2=F ITyADJ=14
 ICtDFT=  3500011 ScaDFX=  1.000000  1.000000  1.000000  1.000000
 FoFCou: FMM=F IPFlag=           0 FMFlag=      100000 FMFlg1=           0
         NFxFlg=           0 DoJE=T BraDBF=F KetDBF=T FulRan=T
         wScrn=  0.000000 ICntrl=     500 IOpCl=  0 I1Cent=   200000004 NGrid=           0
         NMat0=    1 NMatS0=      1 NMatT0=    0 NMatD0=    1 NMtDS0=    0 NMtDT0=    0
 Petite list used in FoFCou.
 Initial guess orbital symmetries:
       Occupied  (A') (A") (A') (A") (A') (A') (A") (A')
       Virtual   (A") (A') (A') (A") (A") (A") (A') (A') (A') (A")
                 (A") (A') (A') (A") (A") (A') (A") (A") (A') (A')
                 (A") (A') (A') (A') (A") (A") (A") (A") (A') (A")
 The electronic state of the initial guess is 1-A'.
 Keep R1 ints in memory in symmetry-blocked form, NReq=1160707.
 Requested convergence on RMS density matrix=1.00D-08 within 128 cycles.
 Requested convergence on MAX density matrix=1.00D-06.
 Requested convergence on             energy=1.00D-06.
 No special actions if energy rises.
 Integral accuracy reduced to 1.0D-05 until final iterations.
 Initial convergence to 1.0D-05 achieved.  Increase integral accuracy.
 SCF Done:  E(RB3LYP) =  -78.5873014349     A.U. after    9 cycles
            NFock=  9  Conv=0.42D-08     -V/T= 2.0105

 **********************************************************************

            Population analysis using the SCF density.

 **********************************************************************

 Orbital symmetries:
       Occupied  (A') (A") (A') (A") (A') (A') (A") (A')
       Virtual   (A") (A') (A') (A") (A") (A") (A') (A') (A') (A")
                 (A') (A") (A') (A") (A") (A') (A") (A") (A') (A')
                 (A") (A') (A') (A') (A") (A") (A") (A") (A') (A")
 The electronic state is 1-A'.
 Alpha  occ. eigenvalues --  -10.18396 -10.18310  -0.75431  -0.57645  -0.46722
 Alpha  occ. eigenvalues --   -0.41256  -0.35578  -0.26566
 Alpha virt. eigenvalues --    0.01807   0.12072   0.14220   0.15911   0.24380
 Alpha virt. eigenvalues --    0.32843   0.48049   0.54930   0.57309   0.63718
 Alpha virt. eigenvalues --    0.65227   0.69762   0.85036   0.87377   0.92977
 Alpha virt. eigenvalues --    0.93968   1.10450   1.23289   1.46224   1.54586
 Alpha virt. eigenvalues --    1.82996   1.89633   1.98535   2.08889   2.29667
 Alpha virt. eigenvalues --    2.38239   2.68025   2.70075   4.09563   4.24801
          Condensed to atoms (all electrons):
               1          2          3          4          5          6
     1  C    4.917999   0.683889   0.378099   0.378098  -0.036152  -0.036152
     2  C    0.683889   4.917999  -0.036152  -0.036152   0.378099   0.378098
     3  H    0.378099  -0.036152   0.560749  -0.041913  -0.008889   0.005215
     4  H    0.378098  -0.036152  -0.041913   0.560750   0.005215  -0.008889
     5  H   -0.036152   0.378099  -0.008889   0.005215   0.560749  -0.041913
     6  H   -0.036152   0.378098   0.005215  -0.008889  -0.041913   0.560750
 Mulliken charges:
               1
     1  C   -0.285781
     2  C   -0.285781
     3  H    0.142891
     4  H    0.142890
     5  H    0.142891
     6  H    0.142890
 Sum of Mulliken charges =   0.00000
 Mulliken charges with hydrogens summed into heavy atoms:
               1
     1  C    0.000000
     2  C    0.000000
 Electronic spatial extent (au):  <R**2>=             82.1241
 Charge=              0.0000 electrons
 Dipole moment (field-independent basis, Debye):
    X=              0.0000    Y=              0.0000    Z=              0.0000  Tot=              0.0000
 Quadrupole moment (field-independent basis, Debye-Ang):
   XX=            -12.0344   YY=            -15.0402   ZZ=            -12.0965
   XY=              0.0000   XZ=              0.0000   YZ=              0.0000
 Traceless Quadrupole moment (field-independent basis, Debye-Ang):
   XX=              1.0226   YY=             -1.9832   ZZ=              0.9605
   XY=              0.0000   XZ=              0.0000   YZ=              0.0000
 Octapole moment (field-independent basis, Debye-Ang**2):
  XXX=              0.0000  YYY=              0.0000  ZZZ=              0.0000  XYY=              0.0000
  XXY=              0.0000  XXZ=              0.0000  XZZ=              0.0000  YZZ=              0.0000
  YYZ=              0.0000  XYZ=              0.0000
 Hexadecapole moment (field-independent basis, Debye-Ang**3):
 XXXX=            -26.1329 YYYY=            -15.6057 ZZZZ=            -66.8187 XXXY=              0.0000
 XXXZ=              0.0000 YYYX=              0.0000 YYYZ=              0.0000 ZZZX=              0.0000
 ZZZY=              0.0000 XXYY=             -7.5423 XXZZ=            -13.2278 YYZZ=            -14.5401
 XXYZ=              0.0000 YYXZ=              0.0000 ZZXY=              0.0000
 N-N= 3.332006293590D+01 E-N=-2.480277506880D+02  KE= 7.776945817259D+01
 Symmetry A'   KE= 4.132962308258D+01
 Symmetry A"   KE= 3.643983509001D+01
 Calling FoFJK, ICntrl=      2127 FMM=F ISym2X=1 I1Cent= 0 IOpClX= 0 NMat=1 NMatS=1 NMatT=0.
 ***** Axes restored to original set *****
 -------------------------------------------------------------------
 Center     Atomic                   Forces (Hartrees/Bohr)
 Number     Number              X              Y              Z
 -------------------------------------------------------------------
      1        6           0.008842584   -0.000004822   -0.000001087
      2        6          -0.008842584   -0.000004822   -0.000001087
      3        1          -0.002462209   -0.000232340   -0.000059377
      4        1          -0.002459427    0.000237162    0.000060464
      5        1           0.002462209   -0.000232340   -0.000059377
      6        1           0.002459427    0.000237162    0.000060464
 -------------------------------------------------------------------
 Cartesian Forces:  Max     0.008842584 RMS     0.003169647

 GradGradGradGradGradGradGradGradGradGradGradGradGradGradGradGradGradGrad
 Berny optimization.
 FormGI is forming the generalized inverse of G from B-inverse, IUseBI=4.
 Internal  Forces:  Max     0.003920949 RMS     0.001786281
 Search for a local minimum.
 Step number   1 out of a maximum of   25
 All quantities printed in internal units (Hartrees-Bohrs-Radians)
 Mixed Optimization -- RFO/linear search
 Second derivative matrix not updated -- first step.
 The second derivative matrix:
                          R1        R2        R3        R4        R5
           R1           0.58159
           R2           0.00000   0.35340
           R3           0.00000   0.00000   0.35339
           R4           0.00000   0.00000   0.00000   0.35340
           R5           0.00000   0.00000   0.00000   0.00000   0.35339
           A1           0.00000   0.00000   0.00000   0.00000   0.00000
           A2           0.00000   0.00000   0.00000   0.00000   0.00000
           A3           0.00000   0.00000   0.00000   0.00000   0.00000
           A4           0.00000   0.00000   0.00000   0.00000   0.00000
           A5           0.00000   0.00000   0.00000   0.00000   0.00000
           A6           0.00000   0.00000   0.00000   0.00000   0.00000
           D1           0.00000   0.00000   0.00000   0.00000   0.00000
           D2           0.00000   0.00000   0.00000   0.00000   0.00000
           D3           0.00000   0.00000   0.00000   0.00000   0.00000
           D4           0.00000   0.00000   0.00000   0.00000   0.00000
                          A1        A2        A3        A4        A5
           A1           0.16000
           A2           0.00000   0.16000
           A3           0.00000   0.00000   0.16000
           A4           0.00000   0.00000   0.00000   0.16000
           A5           0.00000   0.00000   0.00000   0.00000   0.16000
           A6           0.00000   0.00000   0.00000   0.00000   0.00000
           D1           0.00000   0.00000   0.00000   0.00000   0.00000
           D2           0.00000   0.00000   0.00000   0.00000   0.00000
           D3           0.00000   0.00000   0.00000   0.00000   0.00000
           D4           0.00000   0.00000   0.00000   0.00000   0.00000
                          A6        D1        D2        D3        D4
           A6           0.16000
           D1           0.00000   0.02938
           D2           0.00000   0.00000   0.02938
           D3           0.00000   0.00000   0.00000   0.02938
           D4           0.00000   0.00000   0.00000   0.00000   0.02938
 ITU=  0
     Eigenvalues ---    0.02938   0.02938   0.02938   0.16000   0.16000
     Eigenvalues ---    0.16000   0.16000   0.35339   0.35339   0.35340
     Eigenvalues ---    0.35340   0.58159
 RFO step:  Lambda=-2.13813991D-04 EMin= 2.93813094D-02
 Linear search not attempted -- first point.
 Iteration  1 RMS(Cart)=  0.00871699 RMS(Int)=  0.00004969
 Iteration  2 RMS(Cart)=  0.00005035 RMS(Int)=  0.00000000
 Iteration  3 RMS(Cart)=  0.00000000 RMS(Int)=  0.00000000
 ClnCor:  largest displacement from symmetrization is 2.97D-11 for atom     5.
 Variable       Old X    -DE/DX   Delta X   Delta X   Delta X     New X
                                 (Linear)    (Quad)   (Total)
    R1        2.52428  -0.00392   0.00000  -0.00674  -0.00674   2.51754
    R2        2.05126   0.00106   0.00000   0.00301   0.00301   2.05427
    R3        2.05128   0.00106   0.00000   0.00299   0.00299   2.05427
    R4        2.05126   0.00106   0.00000   0.00301   0.00301   2.05427
    R5        2.05128   0.00106   0.00000   0.00299   0.00299   2.05427
    A1        2.11270   0.00153   0.00000   0.00953   0.00953   2.12223
    A2        2.11270   0.00153   0.00000   0.00953   0.00953   2.12223
    A3        2.05778  -0.00305   0.00000  -0.01906  -0.01906   2.03872
    A4        2.11270   0.00153   0.00000   0.00953   0.00953   2.12223
    A5        2.11270   0.00153   0.00000   0.00953   0.00953   2.12223
    A6        2.05778  -0.00305   0.00000  -0.01906  -0.01906   2.03872
    D1        0.00000   0.00000   0.00000   0.00000   0.00000   0.00000
    D2        3.14159   0.00000   0.00000   0.00000   0.00000  -3.14159
    D3       -3.14159   0.00000   0.00000   0.00000   0.00000   3.14159
    D4        0.00000   0.00000   0.00000   0.00000   0.00000   0.00000
         Item               Value     Threshold  Converged?
 Maximum Force            0.003921     0.000450     NO 
 RMS     Force            0.001786     0.000300     NO 
 Maximum Displacement     0.014906     0.001800     NO 
 RMS     Displacement     0.008728     0.001200     NO 
 Predicted change in Energy=-1.070324D-04
 GradGradGradGradGradGradGradGradGradGradGradGradGradGradGradGradGradGrad

                          Input orientation:                          
 ---------------------------------------------------------------------
 Center     Atomic      Atomic             Coordinates (Angstroms)
 Number     Number       Type             X           Y           Z
 ---------------------------------------------------------------------
      1          6           0        0.947653    0.008177   -0.074289
      2          6           0        2.279877    0.008177   -0.074289
      3          1           0        0.378122    0.905352    0.154714
      4          1           0        0.378124   -0.888999   -0.303295
      5          1           0        2.849408    0.905352    0.154714
      6          1           0        2.849406   -0.888999   -0.303295
 ---------------------------------------------------------------------
                    Distance matrix (angstroms):
                    1          2          3          4          5
     1  C    0.000000
     2  C    1.332224   0.000000
     3  H    1.087075   2.115192   0.000000
     4  H    1.087074   2.115191   1.851882   0.000000
     5  H    2.115192   1.087075   2.471286   3.088156   0.000000
     6  H    2.115191   1.087074   3.088156   2.471282   1.851882
                    6
     6  H    0.000000
 Stoichiometry    C2H4
 Framework group  CS[X(C2H4)]
 Deg. of freedom     6
 Full point group                 CS      NOp   2
 Largest Abelian subgroup         CS      NOp   2
 Largest concise Abelian subgroup CS      NOp   2
                         Standard orientation:                         
 ---------------------------------------------------------------------
 Center     Atomic      Atomic             Coordinates (Angstroms)
 Number     Number       Type             X           Y           Z
 ---------------------------------------------------------------------
      1          6           0        0.000000    0.000000    0.666112
      2          6           0        0.000000    0.000000   -0.666112
      3          1           0       -0.925940   -0.000001    1.235643
      4          1           0        0.925941   -0.000001    1.235641
      5          1           0       -0.925940   -0.000001   -1.235643
      6          1           0        0.925941   -0.000001   -1.235641
 ---------------------------------------------------------------------
 Rotational constants (GHZ):    146.2195968     30.0750049     24.9443547
 Standard basis: 6-31G(d) (6D, 7F)
 There are    19 symmetry adapted cartesian basis functions of A'  symmetry.
 There are    19 symmetry adapted cartesian basis functions of A"  symmetry.
 There are    19 symmetry adapted basis functions of A'  symmetry.
 There are    19 symmetry adapted basis functions of A"  symmetry.
    38 basis functions,    72 primitive gaussians,    38 cartesian basis functions
     8 alpha electrons        8 beta electrons
       nuclear repulsion energy        33.3294312085 Hartrees.
 NAtoms=    6 NActive=    6 NUniq=    3 SFac= 4.00D+00 NAtFMM=   60 NAOKFM=F Big=F
 Integral buffers will be    131072 words long.
 Raffenetti 2 integral format.
 Two-electron integral symmetry is turned on.
 One-electron integrals computed using PRISM.
 NBasis=    38 RedAO= T EigKep=  5.41D-03  NBF=    19    19
 NBsUse=    38 1.00D-06 EigRej= -1.00D+00 NBFU=    19    19
 Initial guess from the checkpoint file:  "/home/mateus/github/db_singletoxygen/chk/molecule_0.chk"
 B after Tr=     0.000000    0.000000    0.000000
         Rot=    1.000000    0.000000    0.000000    0.000000 Ang=   0.00 deg.
 Initial guess orbital symmetries:
       Occupied  (A') (A") (A') (A") (A') (A') (A") (A')
       Virtual   (A') (A') (A') (A') (A') (A') (A') (A') (A') (A')
                 (A') (A') (A') (A') (A") (A") (A") (A") (A") (A")
                 (A") (A") (A") (A") (A") (A") (A") (A") (A") (A")
 Keep R1 ints in memory in symmetry-blocked form, NReq=1160707.
 Requested convergence on RMS density matrix=1.00D-08 within 128 cycles.
 Requested convergence on MAX density matrix=1.00D-06.
 Requested convergence on             energy=1.00D-06.
 No special actions if energy rises.
 SCF Done:  E(RB3LYP) =  -78.5874422398     A.U. after    7 cycles
            NFock=  7  Conv=0.48D-09     -V/T= 2.0105
 Calling FoFJK, ICntrl=      2127 FMM=F ISym2X=1 I1Cent= 0 IOpClX= 0 NMat=1 NMatS=1 NMatT=0.
 ***** Axes restored to original set *****
 -------------------------------------------------------------------
 Center     Atomic                   Forces (Hartrees/Bohr)
 Number     Number              X              Y              Z
 -------------------------------------------------------------------
      1        6           0.002410437    0.000000064   -0.000000078
      2        6          -0.002410437    0.000000064   -0.000000078
      3        1          -0.000736923   -0.000235292   -0.000060011
      4        1          -0.000737088    0.000235228    0.000060089
      5        1           0.000736923   -0.000235292   -0.000060011
      6        1           0.000737088    0.000235228    0.000060089
 -------------------------------------------------------------------
 Cartesian Forces:  Max     0.002410437 RMS     0.000882828

 GradGradGradGradGradGradGradGradGradGradGradGradGradGradGradGradGradGrad
 Berny optimization.
 Using GEDIIS/GDIIS optimizer.
 FormGI is forming the generalized inverse of G from B-inverse, IUseBI=4.
 Internal  Forces:  Max     0.001033941 RMS     0.000529944
 Search for a local minimum.
 Step number   2 out of a maximum of   25
 All quantities printed in internal units (Hartrees-Bohrs-Radians)
 Mixed Optimization -- En-DIIS/RFO-DIIS
 Update second derivatives using D2CorX and points    1    2
 DE= -1.41D-04 DEPred=-1.07D-04 R= 1.32D+00
 TightC=F SS=  1.41D+00  RLast= 3.42D-02 DXNew= 5.0454D-01 1.0268D-01
 Trust test= 1.32D+00 RLast= 3.42D-02 DXMaxT set to 3.00D-01
 The second derivative matrix:
                          R1        R2        R3        R4        R5
           R1           0.57057
           R2           0.00146   0.35346
           R3           0.00147   0.00005   0.35344
           R4           0.00146   0.00006   0.00005   0.35346
           R5           0.00147   0.00005   0.00005   0.00005   0.35344
           A1           0.00737  -0.00148  -0.00148  -0.00148  -0.00148
           A2           0.00737  -0.00148  -0.00148  -0.00148  -0.00148
           A3          -0.01474   0.00296   0.00296   0.00296   0.00296
           A4           0.00737  -0.00148  -0.00148  -0.00148  -0.00148
           A5           0.00737  -0.00148  -0.00148  -0.00148  -0.00148
           A6          -0.01474   0.00296   0.00296   0.00296   0.00296
           D1           0.00000   0.00000   0.00000   0.00000   0.00000
           D2           0.00000   0.00000   0.00000   0.00000   0.00000
           D3           0.00000   0.00000   0.00000   0.00000   0.00000
           D4           0.00000   0.00000   0.00000   0.00000   0.00000
                          A1        A2        A3        A4        A5
           A1           0.15609
           A2          -0.00391   0.15609
           A3           0.00782   0.00783   0.14435
           A4          -0.00391  -0.00391   0.00782   0.15609
           A5          -0.00391  -0.00391   0.00783  -0.00391   0.15609
           A6           0.00782   0.00783  -0.01565   0.00782   0.00783
           D1           0.00000   0.00000   0.00000   0.00000   0.00000
           D2           0.00000   0.00000   0.00000   0.00000   0.00000
           D3           0.00000   0.00000   0.00000   0.00000   0.00000
           D4           0.00000   0.00000   0.00000   0.00000   0.00000
                          A6        D1        D2        D3        D4
           A6           0.14435
           D1           0.00000   0.02938
           D2           0.00000   0.00000   0.02938
           D3           0.00000   0.00000   0.00000   0.02938
           D4           0.00000   0.00000   0.00000   0.00000   0.02938
 ITU=  1  0
 Use linear search instead of GDIIS.
     Eigenvalues ---    0.02938   0.02938   0.02938   0.11118   0.16000
     Eigenvalues ---    0.16000   0.16000   0.35339   0.35340   0.35340
     Eigenvalues ---    0.35403   0.57202
 RFO step:  Lambda=-1.09677757D-06 EMin= 2.93813094D-02
 Quartic linear search produced a step of  0.45941.
 Iteration  1 RMS(Cart)=  0.00452397 RMS(Int)=  0.00001201
 Iteration  2 RMS(Cart)=  0.00001205 RMS(Int)=  0.00000000
 Iteration  3 RMS(Cart)=  0.00000000 RMS(Int)=  0.00000000
 ClnCor:  largest displacement from symmetrization is 6.10D-09 for atom     2.
 Variable       Old X    -DE/DX   Delta X   Delta X   Delta X     New X
                                 (Linear)    (Quad)   (Total)
    R1        2.51754  -0.00094  -0.00310   0.00072  -0.00238   2.51516
    R2        2.05427   0.00018   0.00138  -0.00063   0.00075   2.05503
    R3        2.05427   0.00018   0.00138  -0.00062   0.00075   2.05503
    R4        2.05427   0.00018   0.00138  -0.00063   0.00075   2.05503
    R5        2.05427   0.00018   0.00138  -0.00062   0.00075   2.05503
    A1        2.12223   0.00052   0.00438   0.00036   0.00474   2.12697
    A2        2.12223   0.00052   0.00438   0.00036   0.00474   2.12697
    A3        2.03872  -0.00103  -0.00876  -0.00072  -0.00948   2.02925
    A4        2.12223   0.00052   0.00438   0.00036   0.00474   2.12697
    A5        2.12223   0.00052   0.00438   0.00036   0.00474   2.12697
    A6        2.03872  -0.00103  -0.00876  -0.00072  -0.00948   2.02925
    D1        0.00000   0.00000   0.00000   0.00000   0.00000   0.00000
    D2       -3.14159   0.00000   0.00000  -0.00001   0.00000   3.14159
    D3        3.14159   0.00000   0.00000   0.00001   0.00000  -3.14159
    D4        0.00000   0.00000   0.00000   0.00000   0.00000   0.00000
         Item               Value     Threshold  Converged?
 Maximum Force            0.001034     0.000450     NO 
 RMS     Force            0.000530     0.000300     NO 
 Maximum Displacement     0.007487     0.001800     NO 
 RMS     Displacement     0.004526     0.001200     NO 
 Predicted change in Energy=-1.617930D-05
 GradGradGradGradGradGradGradGradGradGradGradGradGradGradGradGradGradGrad

                          Input orientation:                          
 ---------------------------------------------------------------------
 Center     Atomic      Atomic             Coordinates (Angstroms)
 Number     Number       Type             X           Y           Z
 ---------------------------------------------------------------------
      1          6           0        0.948283    0.008177   -0.074291
      2          6           0        2.279247    0.008177   -0.074291
      3          1           0        0.374162    0.903055    0.154129
      4          1           0        0.374162   -0.886702   -0.302708
      5          1           0        2.853368    0.903055    0.154129
      6          1           0        2.853368   -0.886702   -0.302708
 ---------------------------------------------------------------------
                    Distance matrix (angstroms):
                    1          2          3          4          5
     1  C    0.000000
     2  C    1.330965   0.000000
     3  H    1.087473   2.117152   0.000000
     4  H    1.087473   2.117152   1.847140   0.000000
     5  H    2.117152   1.087473   2.479206   3.091665   0.000000
     6  H    2.117152   1.087473   3.091665   2.479206   1.847140
                    6
     6  H    0.000000
 Stoichiometry    C2H4
 Framework group  CS[X(C2H4)]
 Deg. of freedom     6
 Full point group                 CS      NOp   2
 Largest Abelian subgroup         CS      NOp   2
 Largest concise Abelian subgroup CS      NOp   2
                         Standard orientation:                         
 ---------------------------------------------------------------------
 Center     Atomic      Atomic             Coordinates (Angstroms)
 Number     Number       Type             X           Y           Z
 ---------------------------------------------------------------------
      1          6           0        0.000000    0.000000    0.665482
      2          6           0        0.000000    0.000000   -0.665482
      3          1           0       -0.923570    0.000001    1.239603
      4          1           0        0.923570    0.000001    1.239603
      5          1           0       -0.923570    0.000001   -1.239603
      6          1           0        0.923570    0.000001   -1.239603
 ---------------------------------------------------------------------
 Rotational constants (GHZ):    146.9711913     30.0403137     24.9422245
 Standard basis: 6-31G(d) (6D, 7F)
 There are    19 symmetry adapted cartesian basis functions of A'  symmetry.
 There are    19 symmetry adapted cartesian basis functions of A"  symmetry.
 There are    19 symmetry adapted basis functions of A'  symmetry.
 There are    19 symmetry adapted basis functions of A"  symmetry.
    38 basis functions,    72 primitive gaussians,    38 cartesian basis functions
     8 alpha electrons        8 beta electrons
       nuclear repulsion energy        33.3328320012 Hartrees.
 NAtoms=    6 NActive=    6 NUniq=    3 SFac= 4.00D+00 NAtFMM=   60 NAOKFM=F Big=F
 Integral buffers will be    131072 words long.
 Raffenetti 2 integral format.
 Two-electron integral symmetry is turned on.
 One-electron integrals computed using PRISM.
 NBasis=    38 RedAO= T EigKep=  5.40D-03  NBF=    19    19
 NBsUse=    38 1.00D-06 EigRej= -1.00D+00 NBFU=    19    19
 Initial guess from the checkpoint file:  "/home/mateus/github/db_singletoxygen/chk/molecule_0.chk"
 B after Tr=     0.000000    0.000000    0.000000
         Rot=    1.000000    0.000000    0.000000    0.000000 Ang=   0.00 deg.
 Initial guess orbital symmetries:
       Occupied  (A') (A") (A') (A") (A') (A') (A") (A')
       Virtual   (A') (A') (A') (A') (A') (A') (A') (A') (A') (A')
                 (A') (A') (A') (A') (A") (A") (A") (A") (A") (A")
                 (A") (A") (A") (A") (A") (A") (A") (A") (A") (A")
 Keep R1 ints in memory in symmetry-blocked form, NReq=1160707.
 Requested convergence on RMS density matrix=1.00D-08 within 128 cycles.
 Requested convergence on MAX density matrix=1.00D-06.
 Requested convergence on             energy=1.00D-06.
 No special actions if energy rises.
 SCF Done:  E(RB3LYP) =  -78.5874582993     A.U. after    6 cycles
            NFock=  6  Conv=0.30D-08     -V/T= 2.0105
 Calling FoFJK, ICntrl=      2127 FMM=F ISym2X=1 I1Cent= 0 IOpClX= 0 NMat=1 NMatS=1 NMatT=0.
 ***** Axes restored to original set *****
 -------------------------------------------------------------------
 Center     Atomic                   Forces (Hartrees/Bohr)
 Number     Number              X              Y              Z
 -------------------------------------------------------------------
      1        6           0.000032262   -0.000000073    0.000000115
      2        6          -0.000032262   -0.000000073    0.000000115
      3        1          -0.000001545    0.000009925    0.000002467
      4        1          -0.000001517   -0.000009852   -0.000002581
      5        1           0.000001545    0.000009925    0.000002467
      6        1           0.000001517   -0.000009852   -0.000002581
 -------------------------------------------------------------------
 Cartesian Forces:  Max     0.000032262 RMS     0.000011803

 GradGradGradGradGradGradGradGradGradGradGradGradGradGradGradGradGradGrad
 Berny optimization.
 Using GEDIIS/GDIIS optimizer.
 FormGI is forming the generalized inverse of G from B-inverse, IUseBI=4.
 Internal  Forces:  Max     0.000029200 RMS     0.000009331
 Search for a local minimum.
 Step number   3 out of a maximum of   25
 All quantities printed in internal units (Hartrees-Bohrs-Radians)
 Mixed Optimization -- En-DIIS/RFO-DIIS
 Swapping is turned off.
 Update second derivatives using D2CorX and points    1    2    3
 DE= -1.61D-05 DEPred=-1.62D-05 R= 9.93D-01
 TightC=F SS=  1.41D+00  RLast= 1.67D-02 DXNew= 5.0454D-01 4.9955D-02
 Trust test= 9.93D-01 RLast= 1.67D-02 DXMaxT set to 3.00D-01
 The second derivative matrix:
                          R1        R2        R3        R4        R5
           R1           0.56858
           R2           0.00198   0.35333
           R3           0.00199  -0.00008   0.35330
           R4           0.00198  -0.00007  -0.00008   0.35333
           R5           0.00199  -0.00008  -0.00009  -0.00008   0.35330
           A1           0.00773  -0.00160  -0.00160  -0.00160  -0.00160
           A2           0.00774  -0.00160  -0.00160  -0.00160  -0.00160
           A3          -0.01547   0.00320   0.00320   0.00320   0.00320
           A4           0.00773  -0.00160  -0.00160  -0.00160  -0.00160
           A5           0.00774  -0.00160  -0.00160  -0.00160  -0.00160
           A6          -0.01547   0.00320   0.00320   0.00320   0.00320
           D1           0.00000   0.00000   0.00000   0.00000   0.00000
           D2           0.00000   0.00000   0.00000   0.00000   0.00000
           D3           0.00000   0.00000   0.00000   0.00000   0.00000
           D4           0.00000   0.00000   0.00000   0.00000   0.00000
                          A1        A2        A3        A4        A5
           A1           0.15622
           A2          -0.00378   0.15622
           A3           0.00756   0.00757   0.14487
           A4          -0.00378  -0.00378   0.00756   0.15622
           A5          -0.00378  -0.00378   0.00757  -0.00378   0.15622
           A6           0.00756   0.00757  -0.01513   0.00756   0.00757
           D1           0.00000   0.00000   0.00000   0.00000   0.00000
           D2           0.00000   0.00000   0.00000   0.00000   0.00000
           D3           0.00000   0.00000   0.00000   0.00000   0.00000
           D4           0.00000   0.00000   0.00000   0.00000   0.00000
                          A6        D1        D2        D3        D4
           A6           0.14487
           D1           0.00000   0.02938
           D2           0.00000   0.00000   0.02938
           D3           0.00000   0.00000   0.00000   0.02938
           D4           0.00000   0.00000   0.00000   0.00000   0.02938
 ITU=  1  1  0
     Eigenvalues ---    0.02938   0.02938   0.02938   0.11250   0.16000
     Eigenvalues ---    0.16000   0.16000   0.35339   0.35339   0.35340
     Eigenvalues ---    0.35356   0.57021
 En-DIIS/RFO-DIIS IScMMF=        0 using points:     3    2
 RFO step:  Lambda= 0.00000000D+00.
 DidBck=F Rises=F RFO-DIIS coefs:    0.99810    0.00190
 Iteration  1 RMS(Cart)=  0.00003349 RMS(Int)=  0.00000001
 Iteration  2 RMS(Cart)=  0.00000000 RMS(Int)=  0.00000000
 ClnCor:  largest displacement from symmetrization is 1.22D-08 for atom     2.
 Variable       Old X    -DE/DX   Delta X   Delta X   Delta X     New X
                                 (Linear)    (Quad)   (Total)
    R1        2.51516  -0.00003   0.00000  -0.00005  -0.00005   2.51511
    R2        2.05503   0.00001   0.00000   0.00003   0.00003   2.05505
    R3        2.05503   0.00001   0.00000   0.00003   0.00003   2.05505
    R4        2.05503   0.00001   0.00000   0.00003   0.00003   2.05505
    R5        2.05503   0.00001   0.00000   0.00003   0.00003   2.05505
    A1        2.12697   0.00000  -0.00001  -0.00001  -0.00002   2.12695
    A2        2.12697   0.00000  -0.00001  -0.00001  -0.00002   2.12695
    A3        2.02925   0.00001   0.00002   0.00002   0.00004   2.02928
    A4        2.12697   0.00000  -0.00001  -0.00001  -0.00002   2.12695
    A5        2.12697   0.00000  -0.00001  -0.00001  -0.00002   2.12695
    A6        2.02925   0.00001   0.00002   0.00002   0.00004   2.02928
    D1        0.00000   0.00000   0.00000   0.00000   0.00000   0.00000
    D2        3.14159   0.00000   0.00000   0.00000   0.00000  -3.14159
    D3       -3.14159   0.00000   0.00000   0.00000   0.00000   3.14159
    D4        0.00000   0.00000   0.00000   0.00000   0.00000   0.00000
         Item               Value     Threshold  Converged?
 Maximum Force            0.000029     0.000450     YES
 RMS     Force            0.000009     0.000300     YES
 Maximum Displacement     0.000045     0.001800     YES
 RMS     Displacement     0.000033     0.001200     YES
 Predicted change in Energy=-1.533103D-09
 Optimization completed.
    -- Stationary point found.
                           ----------------------------
                           !   Optimized Parameters   !
                           ! (Angstroms and Degrees)  !
 --------------------------                            --------------------------
 ! Name  Definition              Value          Derivative Info.                !
 --------------------------------------------------------------------------------
 ! R1    R(1,2)                  1.331          -DE/DX =    0.0                 !
 ! R2    R(1,3)                  1.0875         -DE/DX =    0.0                 !
 ! R3    R(1,4)                  1.0875         -DE/DX =    0.0                 !
 ! R4    R(2,5)                  1.0875         -DE/DX =    0.0                 !
 ! R5    R(2,6)                  1.0875         -DE/DX =    0.0                 !
 ! A1    A(2,1,3)              121.8664         -DE/DX =    0.0                 !
 ! A2    A(2,1,4)              121.8664         -DE/DX =    0.0                 !
 ! A3    A(3,1,4)              116.2672         -DE/DX =    0.0                 !
 ! A4    A(1,2,5)              121.8664         -DE/DX =    0.0                 !
 ! A5    A(1,2,6)              121.8664         -DE/DX =    0.0                 !
 ! A6    A(5,2,6)              116.2672         -DE/DX =    0.0                 !
 ! D1    D(3,1,2,5)              0.0            -DE/DX =    0.0                 !
 ! D2    D(3,1,2,6)           -180.0001         -DE/DX =    0.0                 !
 ! D3    D(4,1,2,5)            180.0001         -DE/DX =    0.0                 !
 ! D4    D(4,1,2,6)              0.0            -DE/DX =    0.0                 !
 --------------------------------------------------------------------------------
 GradGradGradGradGradGradGradGradGradGradGradGradGradGradGradGradGradGrad

                          Input orientation:                          
 ---------------------------------------------------------------------
 Center     Atomic      Atomic             Coordinates (Angstroms)
 Number     Number       Type             X           Y           Z
 ---------------------------------------------------------------------
      1          6           0        0.948283    0.008177   -0.074291
      2          6           0        2.279247    0.008177   -0.074291
      3          1           0        0.374162    0.903055    0.154129
      4          1           0        0.374162   -0.886702   -0.302708
      5          1           0        2.853368    0.903055    0.154129
      6          1           0        2.853368   -0.886702   -0.302708
 ---------------------------------------------------------------------
                    Distance matrix (angstroms):
                    1          2          3          4          5
     1  C    0.000000
     2  C    1.330965   0.000000
     3  H    1.087473   2.117152   0.000000
     4  H    1.087473   2.117152   1.847140   0.000000
     5  H    2.117152   1.087473   2.479206   3.091665   0.000000
     6  H    2.117152   1.087473   3.091665   2.479206   1.847140
                    6
     6  H    0.000000
 Stoichiometry    C2H4
 Framework group  CS[X(C2H4)]
 Deg. of freedom     6
 Full point group                 CS      NOp   2
 Largest Abelian subgroup         CS      NOp   2
 Largest concise Abelian subgroup CS      NOp   2
                         Standard orientation:                         
 ---------------------------------------------------------------------
 Center     Atomic      Atomic             Coordinates (Angstroms)
 Number     Number       Type             X           Y           Z
 ---------------------------------------------------------------------
      1          6           0        0.000000    0.000000    0.665482
      2          6           0        0.000000    0.000000   -0.665482
      3          1           0       -0.923570    0.000001    1.239603
      4          1           0        0.923570    0.000001    1.239603
      5          1           0       -0.923570    0.000001   -1.239603
      6          1           0        0.923570    0.000001   -1.239603
 ---------------------------------------------------------------------
 Rotational constants (GHZ):    146.9711913     30.0403137     24.9422245

 **********************************************************************

            Population analysis using the SCF density.

 **********************************************************************

 Orbital symmetries:
       Occupied  (A') (A") (A') (A") (A') (A') (A") (A')
       Virtual   (A") (A') (A') (A") (A") (A") (A') (A') (A') (A")
                 (A') (A") (A') (A") (A") (A') (A") (A") (A') (A')
                 (A") (A') (A') (A') (A") (A") (A") (A") (A') (A")
 The electronic state is 1-A'.
 Alpha  occ. eigenvalues --  -10.18428 -10.18338  -0.75474  -0.57734  -0.46466
 Alpha  occ. eigenvalues --   -0.41641  -0.35321  -0.26662
 Alpha virt. eigenvalues --    0.01878   0.12237   0.14025   0.15756   0.24406
 Alpha virt. eigenvalues --    0.33237   0.48036   0.54847   0.56853   0.63727
 Alpha virt. eigenvalues --    0.65524   0.69901   0.84750   0.87219   0.93172
 Alpha virt. eigenvalues --    0.94111   1.10572   1.21572   1.46273   1.54519
 Alpha virt. eigenvalues --    1.83288   1.89028   1.98791   2.08821   2.28539
 Alpha virt. eigenvalues --    2.38621   2.70148   2.70529   4.09688   4.24635
          Condensed to atoms (all electrons):
               1          2          3          4          5          6
     1  C    4.914266   0.687081   0.377543   0.377543  -0.035488  -0.035488
     2  C    0.687081   4.914266  -0.035488  -0.035488   0.377543   0.377543
     3  H    0.377543  -0.035488   0.562351  -0.043551  -0.008728   0.005143
     4  H    0.377543  -0.035488  -0.043551   0.562351   0.005143  -0.008728
     5  H   -0.035488   0.377543  -0.008728   0.005143   0.562351  -0.043551
     6  H   -0.035488   0.377543   0.005143  -0.008728  -0.043551   0.562351
 Mulliken charges:
               1
     1  C   -0.285458
     2  C   -0.285458
     3  H    0.142729
     4  H    0.142729
     5  H    0.142729
     6  H    0.142729
 Sum of Mulliken charges =   0.00000
 Mulliken charges with hydrogens summed into heavy atoms:
               1
     1  C    0.000000
     2  C    0.000000
 Electronic spatial extent (au):  <R**2>=             82.2163
 Charge=              0.0000 electrons
 Dipole moment (field-independent basis, Debye):
    X=              0.0000    Y=              0.0000    Z=              0.0000  Tot=              0.0000
 Quadrupole moment (field-independent basis, Debye-Ang):
   XX=            -12.1183   YY=            -15.0313   ZZ=            -11.9970
   XY=              0.0000   XZ=              0.0000   YZ=              0.0000
 Traceless Quadrupole moment (field-independent basis, Debye-Ang):
   XX=              0.9306   YY=             -1.9825   ZZ=              1.0519
   XY=              0.0000   XZ=              0.0000   YZ=              0.0000
 Octapole moment (field-independent basis, Debye-Ang**2):
  XXX=              0.0000  YYY=              0.0000  ZZZ=              0.0000  XYY=              0.0000
  XXY=              0.0000  XXZ=              0.0000  XZZ=              0.0000  YZZ=              0.0000
  YYZ=              0.0000  XYZ=              0.0000
 Hexadecapole moment (field-independent basis, Debye-Ang**3):
 XXXX=            -26.1753 YYYY=            -15.5785 ZZZZ=            -66.7295 XXXY=              0.0000
 XXXZ=              0.0000 YYYX=              0.0000 YYYZ=              0.0000 ZZZX=              0.0000
 ZZZY=              0.0000 XXYY=             -7.5223 XXZZ=            -13.2614 YYZZ=            -14.5839
 XXYZ=              0.0000 YYXZ=              0.0000 ZZXY=              0.0000
 N-N= 3.333283200119D+01 E-N=-2.480510961706D+02  KE= 7.777003241495D+01
 Symmetry A'   KE= 4.134639971608D+01
 Symmetry A"   KE= 3.642363269887D+01
 1\1\GINC-ABCSIM\FOpt\RB3LYP\6-31G(d)\C2H4\MATEUS\01-Oct-2019\0\\#opt f
 req b3lyp/6-31g(d)\\molecule_0 C=C\\0,1\C,0.9482826912,0.008176856,-0.
 0742907088\C,2.2792473088,0.008176856,-0.0742907088\H,0.3741620066,0.9
 030547991,0.1541286244\H,0.3741619505,-0.8867016701,-0.3027079202\H,2.
 8533679934,0.9030547991,0.1541286244\H,2.8533680495,-0.8867016701,-0.3
 027079202\\Version=ES64L-G09RevD.01\State=1-A'\HF=-78.5874583\RMSD=2.9
 70e-09\RMSF=1.180e-05\Dipole=0.,-0.0000002,0.0000011\Quadrupole=0.7820
 516,0.5593821,-1.3414337,0.,0.,0.5189988\PG=CS [X(C2H4)]\\@


 IT IS BY EATING THE LIGHT OF A STAR THAT WE EXIST, 
 IN THE FINAL ANALYSIS, 
 JUST AS IT IS BY PERCEIVING THE LIGHT OF STARS
 THAT WE DEFINE THE WORLD AROUND US.

                                    -- GILBERT GROSVENOR
 Job cpu time:       0 days  0 hours  0 minutes 13.7 seconds.
 File lengths (MBytes):  RWF=      5 Int=      0 D2E=      0 Chk=      1 Scr=      1
 Normal termination of Gaussian 09 at Tue Oct  1 16:16:35 2019.
 Link1:  Proceeding to internal job step number  2.
 --------------------------------------------------------------------
 #N Geom=AllCheck Guess=TCheck SCRF=Check GenChk RB3LYP/6-31G(d) Freq
 --------------------------------------------------------------------
 1/10=4,29=7,30=1,38=1,40=1/1,3;
 2/12=2,40=1/2;
 3/5=1,6=6,7=1,11=2,14=-4,16=1,25=1,30=1,70=2,71=2,74=-5,116=1,140=1/1,2,3;
 4/5=101/1;
 5/5=2,98=1/2;
 8/6=4,10=90,11=11/1;
 11/6=1,8=1,9=11,15=111,16=1/1,2,10;
 10/6=1/2;
 6/7=2,8=2,9=2,10=2,18=1,28=1/1;
 7/8=1,10=1,25=1/1,2,3,16;
 1/10=4,30=1/3;
 99//99;
 Structure from the checkpoint file:  "/home/mateus/github/db_singletoxygen/chk/molecule_0.chk"
 --------------
 molecule_0 C=C
 --------------
 Charge =  0 Multiplicity = 1
 Redundant internal coordinates found in file.
 C,0,0.9482826912,0.008176856,-0.0742907088
 C,0,2.2792473088,0.008176856,-0.0742907088
 H,0,0.3741620066,0.9030547991,0.1541286244
 H,0,0.3741619505,-0.8867016701,-0.3027079202
 H,0,2.8533679934,0.9030547991,0.1541286244
 H,0,2.8533680495,-0.8867016701,-0.3027079202
 Recover connectivity data from disk.

 GradGradGradGradGradGradGradGradGradGradGradGradGradGradGradGradGradGrad
 Berny optimization.
 Initialization pass.
                           ----------------------------
                           !    Initial Parameters    !
                           ! (Angstroms and Degrees)  !
 --------------------------                            --------------------------
 ! Name  Definition              Value          Derivative Info.                !
 --------------------------------------------------------------------------------
 ! R1    R(1,2)                  1.331          calculate D2E/DX2 analytically  !
 ! R2    R(1,3)                  1.0875         calculate D2E/DX2 analytically  !
 ! R3    R(1,4)                  1.0875         calculate D2E/DX2 analytically  !
 ! R4    R(2,5)                  1.0875         calculate D2E/DX2 analytically  !
 ! R5    R(2,6)                  1.0875         calculate D2E/DX2 analytically  !
 ! A1    A(2,1,3)              121.8664         calculate D2E/DX2 analytically  !
 ! A2    A(2,1,4)              121.8664         calculate D2E/DX2 analytically  !
 ! A3    A(3,1,4)              116.2672         calculate D2E/DX2 analytically  !
 ! A4    A(1,2,5)              121.8664         calculate D2E/DX2 analytically  !
 ! A5    A(1,2,6)              121.8664         calculate D2E/DX2 analytically  !
 ! A6    A(5,2,6)              116.2672         calculate D2E/DX2 analytically  !
 ! D1    D(3,1,2,5)              0.0            calculate D2E/DX2 analytically  !
 ! D2    D(3,1,2,6)            179.9999         calculate D2E/DX2 analytically  !
 ! D3    D(4,1,2,5)           -179.9999         calculate D2E/DX2 analytically  !
 ! D4    D(4,1,2,6)              0.0            calculate D2E/DX2 analytically  !
 --------------------------------------------------------------------------------
 Trust Radius=3.00D-01 FncErr=1.00D-07 GrdErr=1.00D-07
 Number of steps in this run=      2 maximum allowed number of steps=      2.
 GradGradGradGradGradGradGradGradGradGradGradGradGradGradGradGradGradGrad

                          Input orientation:                          
 ---------------------------------------------------------------------
 Center     Atomic      Atomic             Coordinates (Angstroms)
 Number     Number       Type             X           Y           Z
 ---------------------------------------------------------------------
      1          6           0        0.948283    0.008177   -0.074291
      2          6           0        2.279247    0.008177   -0.074291
      3          1           0        0.374162    0.903055    0.154129
      4          1           0        0.374162   -0.886702   -0.302708
      5          1           0        2.853368    0.903055    0.154129
      6          1           0        2.853368   -0.886702   -0.302708
 ---------------------------------------------------------------------
                    Distance matrix (angstroms):
                    1          2          3          4          5
     1  C    0.000000
     2  C    1.330965   0.000000
     3  H    1.087473   2.117152   0.000000
     4  H    1.087473   2.117152   1.847140   0.000000
     5  H    2.117152   1.087473   2.479206   3.091665   0.000000
     6  H    2.117152   1.087473   3.091665   2.479206   1.847140
                    6
     6  H    0.000000
 Stoichiometry    C2H4
 Framework group  CS[X(C2H4)]
 Deg. of freedom     6
 Full point group                 CS      NOp   2
 Largest Abelian subgroup         CS      NOp   2
 Largest concise Abelian subgroup CS      NOp   2
                         Standard orientation:                         
 ---------------------------------------------------------------------
 Center     Atomic      Atomic             Coordinates (Angstroms)
 Number     Number       Type             X           Y           Z
 ---------------------------------------------------------------------
      1          6           0        0.000000    0.000000    0.665482
      2          6           0        0.000000    0.000000   -0.665482
      3          1           0       -0.923570    0.000001    1.239603
      4          1           0        0.923570    0.000001    1.239603
      5          1           0       -0.923570    0.000001   -1.239603
      6          1           0        0.923570    0.000001   -1.239603
 ---------------------------------------------------------------------
 Rotational constants (GHZ):    146.9711913     30.0403137     24.9422245
 Standard basis: 6-31G(d) (6D, 7F)
 There are    19 symmetry adapted cartesian basis functions of A'  symmetry.
 There are    19 symmetry adapted cartesian basis functions of A"  symmetry.
 There are    19 symmetry adapted basis functions of A'  symmetry.
 There are    19 symmetry adapted basis functions of A"  symmetry.
    38 basis functions,    72 primitive gaussians,    38 cartesian basis functions
     8 alpha electrons        8 beta electrons
       nuclear repulsion energy        33.3328320012 Hartrees.
 NAtoms=    6 NActive=    6 NUniq=    3 SFac= 4.00D+00 NAtFMM=   60 NAOKFM=F Big=F
 Integral buffers will be    131072 words long.
 Raffenetti 2 integral format.
 Two-electron integral symmetry is turned on.
 One-electron integrals computed using PRISM.
 NBasis=    38 RedAO= T EigKep=  5.40D-03  NBF=    19    19
 NBsUse=    38 1.00D-06 EigRej= -1.00D+00 NBFU=    19    19
 Initial guess from the checkpoint file:  "/home/mateus/github/db_singletoxygen/chk/molecule_0.chk"
 B after Tr=     0.000000    0.000000    0.000000
         Rot=    1.000000    0.000000    0.000000    0.000000 Ang=   0.00 deg.
 Initial guess orbital symmetries:
       Occupied  (A') (A") (A') (A") (A') (A') (A") (A')
       Virtual   (A") (A') (A') (A") (A") (A") (A') (A') (A') (A")
                 (A') (A") (A') (A") (A") (A') (A") (A") (A') (A')
                 (A") (A') (A') (A') (A") (A") (A") (A") (A') (A")
 Keep R1 ints in memory in symmetry-blocked form, NReq=1160707.
 Requested convergence on RMS density matrix=1.00D-08 within 128 cycles.
 Requested convergence on MAX density matrix=1.00D-06.
 Requested convergence on             energy=1.00D-06.
 No special actions if energy rises.
 SCF Done:  E(RB3LYP) =  -78.5874582993     A.U. after    1 cycles
            NFock=  1  Conv=0.33D-09     -V/T= 2.0105
 DoSCS=F DFT=T ScalE2(SS,OS)=  1.000000  1.000000
 Range of M.O.s used for correlation:     1    38
 NBasis=    38 NAE=     8 NBE=     8 NFC=     0 NFV=     0
 NROrb=     38 NOA=     8 NOB=     8 NVA=    30 NVB=    30
 Symmetrizing basis deriv contribution to polar:
 IMax=3 JMax=2 DiffMx= 0.00D+00
 G2DrvN: will do     7 centers at a time, making    1 passes.
 Calling FoFCou, ICntrl=  3107 FMM=F I1Cent=   0 AccDes= 0.00D+00.
 End of G2Drv F.D. properties file   721 does not exist.
 End of G2Drv F.D. properties file   722 does not exist.
 End of G2Drv F.D. properties file   788 does not exist.
          IDoAtm=111111
          Differentiating once with respect to electric field.
                with respect to dipole field.
          Differentiating once with respect to nuclear coordinates.
 Keep R1 ints in memory in symmetry-blocked form, NReq=1137437.
          There are    12 degrees of freedom in the 1st order CPHF.  IDoFFX=4 NUNeed=    12.
     12 vectors produced by pass  0 Test12= 2.00D-15 8.33D-09 XBig12= 3.13D+01 4.79D+00.
 AX will form    12 AO Fock derivatives at one time.
     12 vectors produced by pass  1 Test12= 2.00D-15 8.33D-09 XBig12= 6.25D+00 9.38D-01.
     12 vectors produced by pass  2 Test12= 2.00D-15 8.33D-09 XBig12= 1.09D-01 1.27D-01.
     12 vectors produced by pass  3 Test12= 2.00D-15 8.33D-09 XBig12= 7.52D-04 1.56D-02.
     12 vectors produced by pass  4 Test12= 2.00D-15 8.33D-09 XBig12= 1.42D-06 3.81D-04.
      5 vectors produced by pass  5 Test12= 2.00D-15 8.33D-09 XBig12= 8.52D-10 8.71D-06.
      1 vectors produced by pass  6 Test12= 2.00D-15 8.33D-09 XBig12= 6.97D-13 2.25D-07.
      1 vectors produced by pass  7 Test12= 2.00D-15 8.33D-09 XBig12= 8.31D-16 1.00D-08.
 InvSVY:  IOpt=1 It=  1 EMax= 4.44D-16
 Solved reduced A of dimension    67 with    12 vectors.
 Isotropic polarizability for W=    0.000000       19.90 Bohr**3.
 End of Minotr F.D. properties file   721 does not exist.
 End of Minotr F.D. properties file   722 does not exist.
 End of Minotr F.D. properties file   788 does not exist.

 **********************************************************************

            Population analysis using the SCF density.

 **********************************************************************

 Orbital symmetries:
       Occupied  (A') (A") (A') (A") (A') (A') (A") (A')
       Virtual   (A") (A') (A') (A") (A") (A") (A') (A') (A') (A")
                 (A') (A") (A') (A") (A") (A') (A") (A") (A') (A')
                 (A") (A') (A') (A') (A") (A") (A") (A") (A') (A")
 The electronic state is 1-A'.
 Alpha  occ. eigenvalues --  -10.18428 -10.18338  -0.75474  -0.57734  -0.46466
 Alpha  occ. eigenvalues --   -0.41641  -0.35321  -0.26662
 Alpha virt. eigenvalues --    0.01878   0.12237   0.14025   0.15756   0.24406
 Alpha virt. eigenvalues --    0.33237   0.48036   0.54847   0.56853   0.63727
 Alpha virt. eigenvalues --    0.65524   0.69901   0.84750   0.87219   0.93172
 Alpha virt. eigenvalues --    0.94111   1.10572   1.21572   1.46273   1.54519
 Alpha virt. eigenvalues --    1.83288   1.89028   1.98791   2.08821   2.28539
 Alpha virt. eigenvalues --    2.38621   2.70148   2.70529   4.09688   4.24635
          Condensed to atoms (all electrons):
               1          2          3          4          5          6
     1  C    4.914266   0.687081   0.377543   0.377543  -0.035488  -0.035488
     2  C    0.687081   4.914266  -0.035488  -0.035488   0.377543   0.377543
     3  H    0.377543  -0.035488   0.562351  -0.043551  -0.008728   0.005143
     4  H    0.377543  -0.035488  -0.043551   0.562351   0.005143  -0.008728
     5  H   -0.035488   0.377543  -0.008728   0.005143   0.562351  -0.043551
     6  H   -0.035488   0.377543   0.005143  -0.008728  -0.043551   0.562351
 Mulliken charges:
               1
     1  C   -0.285458
     2  C   -0.285458
     3  H    0.142729
     4  H    0.142729
     5  H    0.142729
     6  H    0.142729
 Sum of Mulliken charges =   0.00000
 Mulliken charges with hydrogens summed into heavy atoms:
               1
     1  C    0.000000
     2  C    0.000000
 APT charges:
               1
     1  C   -0.041047
     2  C   -0.041047
     3  H    0.020523
     4  H    0.020523
     5  H    0.020523
     6  H    0.020523
 Sum of APT charges =   0.00000
 APT charges with hydrogens summed into heavy atoms:
               1
     1  C    0.000000
     2  C    0.000000
 Electronic spatial extent (au):  <R**2>=             82.2163
 Charge=              0.0000 electrons
 Dipole moment (field-independent basis, Debye):
    X=              0.0000    Y=              0.0000    Z=              0.0000  Tot=              0.0000
 Quadrupole moment (field-independent basis, Debye-Ang):
   XX=            -12.1183   YY=            -15.0313   ZZ=            -11.9970
   XY=              0.0000   XZ=              0.0000   YZ=              0.0000
 Traceless Quadrupole moment (field-independent basis, Debye-Ang):
   XX=              0.9306   YY=             -1.9825   ZZ=              1.0519
   XY=              0.0000   XZ=              0.0000   YZ=              0.0000
 Octapole moment (field-independent basis, Debye-Ang**2):
  XXX=              0.0000  YYY=              0.0000  ZZZ=              0.0000  XYY=              0.0000
  XXY=              0.0000  XXZ=              0.0000  XZZ=              0.0000  YZZ=              0.0000
  YYZ=              0.0000  XYZ=              0.0000
 Hexadecapole moment (field-independent basis, Debye-Ang**3):
 XXXX=            -26.1753 YYYY=            -15.5785 ZZZZ=            -66.7295 XXXY=              0.0000
 XXXZ=              0.0000 YYYX=              0.0000 YYYZ=              0.0000 ZZZX=              0.0000
 ZZZY=              0.0000 XXYY=             -7.5223 XXZZ=            -13.2614 YYZZ=            -14.5839
 XXYZ=              0.0000 YYXZ=              0.0000 ZZXY=              0.0000
 N-N= 3.333283200119D+01 E-N=-2.480510960951D+02  KE= 7.777003238308D+01
 Symmetry A'   KE= 4.134639969542D+01
 Symmetry A"   KE= 3.642363268766D+01
  Exact polarizability:  20.409   0.000   8.511   0.000   0.000  30.783
 Approx polarizability:  25.281   0.000  11.018   0.000   0.000  46.720
 Calling FoFJK, ICntrl=    100127 FMM=F ISym2X=1 I1Cent= 0 IOpClX= 0 NMat=1 NMatS=1 NMatT=0.
 Full mass-weighted force constant matrix:
 Low frequencies ---  -33.0224  -16.4919   -0.0010   -0.0003    0.0001   18.7546
 Low frequencies ---  835.0380  956.0181  975.7031
 Diagonal vibrational polarizability:
        0.1139911       2.3463256       0.1138516
 Harmonic frequencies (cm**-1), IR intensities (KM/Mole), Raman scattering
 activities (A**4/AMU), depolarization ratios for plane and unpolarized
 incident light, reduced masses (AMU), force constants (mDyne/A),
 and normal coordinates:
                      1                      2                      3
                     A'                     A"                     A'
 Frequencies --    835.0380               956.0181               975.7031
 Red. masses --      1.0427                 1.5208                 1.1607
 Frc consts  --      0.4284                 0.8189                 0.6511
 IR Inten    --      0.7351                 0.0000                83.0024
  Atom  AN      X      Y      Z        X      Y      Z        X      Y      Z
     1   6     0.04   0.00   0.00     0.00   0.15   0.00     0.00   0.08   0.00
     2   6     0.04   0.00   0.00     0.00  -0.15   0.00     0.00   0.08   0.00
     3   1    -0.24   0.00  -0.44     0.00  -0.49   0.00     0.00  -0.50   0.00
     4   1    -0.24   0.00   0.44     0.00  -0.49   0.00     0.00  -0.50   0.00
     5   1    -0.24   0.00   0.44     0.00   0.49   0.00     0.00  -0.50   0.00
     6   1    -0.24   0.00  -0.44     0.00   0.49   0.00     0.00  -0.50   0.00
                      4                      5                      6
                     A"                     A"                     A'
 Frequencies --   1069.7667              1247.9775              1395.8496
 Red. masses --      1.0078                 1.5257                 1.2272
 Frc consts  --      0.6795                 1.4000                 1.4087
 IR Inten    --      0.0000                 0.0000                 0.0000
  Atom  AN      X      Y      Z        X      Y      Z        X      Y      Z
     1   6     0.00   0.00   0.00     0.15   0.00   0.00     0.00   0.00   0.10
     2   6     0.00   0.00   0.00    -0.15   0.00   0.00     0.00   0.00  -0.10
     3   1     0.00   0.50   0.00    -0.14   0.00  -0.47     0.20   0.00   0.45
     4   1     0.00  -0.50   0.00    -0.14   0.00   0.47    -0.20   0.00   0.45
     5   1     0.00  -0.50   0.00     0.14   0.00  -0.47     0.20   0.00  -0.45
     6   1     0.00   0.50   0.00     0.14   0.00   0.47    -0.20   0.00  -0.45
                      7                      8                      9
                     A"                     A'                     A"
 Frequencies --   1494.4974              1720.3383              3152.4209
 Red. masses --      1.1119                 3.1097                 1.0478
 Frc consts  --      1.4632                 5.4225                 6.1348
 IR Inten    --      5.2356                 0.0000                18.7479
  Atom  AN      X      Y      Z        X      Y      Z        X      Y      Z
     1   6     0.00   0.00   0.07     0.00   0.00   0.31     0.00   0.00  -0.04
     2   6     0.00   0.00   0.07     0.00   0.00  -0.31     0.00   0.00  -0.04
     3   1    -0.28   0.00  -0.41    -0.38   0.00  -0.24    -0.43   0.00   0.25
     4   1     0.28   0.00  -0.41     0.38   0.00  -0.24     0.43   0.00   0.25
     5   1     0.28   0.00  -0.41    -0.38   0.00   0.24     0.43   0.00   0.25
     6   1    -0.28   0.00  -0.41     0.38   0.00   0.24    -0.43   0.00   0.25
                     10                     11                     12
                     A'                     A"                     A'
 Frequencies --   3167.8660              3222.7550              3248.2868
 Red. masses --      1.0737                 1.1150                 1.1176
 Frc consts  --      6.3485                 6.8228                 6.9480
 IR Inten    --      0.0000                 0.0000                33.5701
  Atom  AN      X      Y      Z        X      Y      Z        X      Y      Z
     1   6     0.00   0.00   0.05    -0.07   0.00   0.00     0.07   0.00   0.00
     2   6     0.00   0.00  -0.05     0.07   0.00   0.00     0.07   0.00   0.00
     3   1     0.43   0.00  -0.26     0.42   0.00  -0.27    -0.42   0.00   0.27
     4   1    -0.43   0.00  -0.26     0.42   0.00   0.27    -0.42   0.00  -0.27
     5   1     0.43   0.00   0.26    -0.42   0.00  -0.27    -0.42   0.00  -0.27
     6   1    -0.43   0.00   0.26    -0.42   0.00   0.27    -0.42   0.00   0.27

 -------------------
 - Thermochemistry -
 -------------------
 Temperature   298.150 Kelvin.  Pressure   1.00000 Atm.
 Atom     1 has atomic number  6 and mass  12.00000
 Atom     2 has atomic number  6 and mass  12.00000
 Atom     3 has atomic number  1 and mass   1.00783
 Atom     4 has atomic number  1 and mass   1.00783
 Atom     5 has atomic number  1 and mass   1.00783
 Atom     6 has atomic number  1 and mass   1.00783
 Molecular mass:    28.03130 amu.
 Principal axes and moments of inertia in atomic units:
                           1         2         3
     Eigenvalues --    12.27956  60.07731  72.35687
           X            0.00000   1.00000   0.00000
           Y            0.00000   0.00000   1.00000
           Z            1.00000   0.00000   0.00000
 This molecule is an asymmetric top.
 Rotational symmetry number  1.
 Rotational temperatures (Kelvin)      7.05350     1.44171     1.19704
 Rotational constants (GHZ):         146.97119    30.04031    24.94222
 Zero-point vibrational energy     134499.2 (Joules/Mol)
                                   32.14609 (Kcal/Mol)
 Vibrational temperatures:   1201.43  1375.50  1403.82  1539.15  1795.56
          (Kelvin)           2008.31  2150.25  2475.18  4535.62  4557.85
                             4636.82  4673.55
 
 Zero-point correction=                           0.051228 (Hartree/Particle)
 Thermal correction to Energy=                    0.054270
 Thermal correction to Enthalpy=                  0.055214
 Thermal correction to Gibbs Free Energy=         0.029044
 Sum of electronic and zero-point Energies=            -78.536230
 Sum of electronic and thermal Energies=               -78.533188
 Sum of electronic and thermal Enthalpies=             -78.532244
 Sum of electronic and thermal Free Energies=          -78.558414
 
                     E (Thermal)             CV                S
                      KCal/Mol        Cal/Mol-Kelvin    Cal/Mol-Kelvin
 Total                   34.055              8.089             55.080
 Electronic               0.000              0.000              0.000
 Translational            0.889              2.981             35.927
 Rotational               0.889              2.981             18.618
 Vibrational             32.277              2.128              0.535
                       Q            Log10(Q)             Ln(Q)
 Total Bot       0.437302D-13        -13.359218        -30.760737
 Total V=0       0.159956D+11         10.204002         23.495582
 Vib (Bot)       0.286635D-23        -23.542671        -54.209004
 Vib (V=0)       0.104845D+01          0.020549          0.047315
 Electronic      0.100000D+01          0.000000          0.000000
 Translational   0.583338D+07          6.765920         15.579107
 Rotational      0.261537D+04          3.417533          7.869160
 ***** Axes restored to original set *****
 -------------------------------------------------------------------
 Center     Atomic                   Forces (Hartrees/Bohr)
 Number     Number              X              Y              Z
 -------------------------------------------------------------------
      1        6           0.000032262   -0.000000061    0.000000118
      2        6          -0.000032262   -0.000000061    0.000000118
      3        1          -0.000001541    0.000009919    0.000002465
      4        1          -0.000001520   -0.000009857   -0.000002583
      5        1           0.000001541    0.000009919    0.000002465
      6        1           0.000001520   -0.000009857   -0.000002583
 -------------------------------------------------------------------
 Cartesian Forces:  Max     0.000032262 RMS     0.000011803
 FormGI is forming the generalized inverse of G from B-inverse, IUseBI=4.

 GradGradGradGradGradGradGradGradGradGradGradGradGradGradGradGradGradGrad
 Berny optimization.
 Internal  Forces:  Max     0.000029201 RMS     0.000009331
 Search for a local minimum.
 Step number   1 out of a maximum of    2
 All quantities printed in internal units (Hartrees-Bohrs-Radians)
 Second derivative matrix not updated -- analytic derivatives used.
 The second derivative matrix:
                          R1        R2        R3        R4        R5
           R1           0.65038
           R2           0.00712   0.36087
           R3           0.00712   0.00269   0.36087
           R4           0.00712   0.00075  -0.00042   0.36087
           R5           0.00712  -0.00042   0.00075   0.00269   0.36087
           A1           0.01076   0.00438  -0.01157  -0.00342   0.00440
           A2           0.01076  -0.01157   0.00438   0.00440  -0.00342
           A3          -0.02153   0.00719   0.00719  -0.00098  -0.00098
           A4           0.01076  -0.00342   0.00440   0.00438  -0.01157
           A5           0.01076   0.00440  -0.00342  -0.01157   0.00438
           A6          -0.02153  -0.00098  -0.00098   0.00719   0.00719
           D1           0.00000   0.00000   0.00000   0.00000   0.00000
           D2           0.00000   0.00000   0.00000   0.00000   0.00000
           D3           0.00000   0.00000   0.00000   0.00000   0.00000
           D4           0.00000   0.00000   0.00000   0.00000   0.00000
                          A1        A2        A3        A4        A5
           A1           0.08253
           A2          -0.04520   0.08253
           A3          -0.03733  -0.03733   0.07466
           A4          -0.00920   0.01063  -0.00143   0.08253
           A5           0.01063  -0.00920  -0.00143  -0.04520   0.08253
           A6          -0.00143  -0.00143   0.00287  -0.03733  -0.03733
           D1           0.00000   0.00000   0.00000   0.00000   0.00000
           D2           0.00000   0.00000   0.00000   0.00000   0.00000
           D3           0.00000   0.00000   0.00000   0.00000   0.00000
           D4           0.00000   0.00000   0.00000   0.00000   0.00000
                          A6        D1        D2        D3        D4
           A6           0.07466
           D1           0.00000   0.02508
           D2           0.00000   0.00831   0.03199
           D3           0.00000   0.00831  -0.01536   0.03199
           D4           0.00000  -0.00846   0.00831   0.00831   0.02508
 ITU=  0
     Eigenvalues ---    0.03324   0.03353   0.04735   0.10691   0.10763
     Eigenvalues ---    0.11316   0.14490   0.35960   0.35968   0.36382
     Eigenvalues ---    0.36401   0.65359
 Angle between quadratic step and forces=  32.40 degrees.
 Linear search not attempted -- first point.
 Iteration  1 RMS(Cart)=  0.00003116 RMS(Int)=  0.00000001
 Iteration  2 RMS(Cart)=  0.00000000 RMS(Int)=  0.00000001
 ClnCor:  largest displacement from symmetrization is 1.63D-08 for atom     6.
 Variable       Old X    -DE/DX   Delta X   Delta X   Delta X     New X
                                 (Linear)    (Quad)   (Total)
    R1        2.51516  -0.00003   0.00000  -0.00004  -0.00004   2.51512
    R2        2.05503   0.00001   0.00000   0.00003   0.00003   2.05505
    R3        2.05503   0.00001   0.00000   0.00003   0.00003   2.05505
    R4        2.05503   0.00001   0.00000   0.00003   0.00003   2.05505
    R5        2.05503   0.00001   0.00000   0.00003   0.00003   2.05505
    A1        2.12697   0.00000   0.00000  -0.00002  -0.00002   2.12695
    A2        2.12697   0.00000   0.00000  -0.00002  -0.00002   2.12695
    A3        2.02925   0.00001   0.00000   0.00004   0.00004   2.02928
    A4        2.12697   0.00000   0.00000  -0.00002  -0.00002   2.12695
    A5        2.12697   0.00000   0.00000  -0.00002  -0.00002   2.12695
    A6        2.02925   0.00001   0.00000   0.00004   0.00004   2.02928
    D1        0.00000   0.00000   0.00000   0.00000   0.00000   0.00000
    D2        3.14159   0.00000   0.00000   0.00000   0.00000   3.14159
    D3       -3.14159   0.00000   0.00000   0.00000   0.00000  -3.14159
    D4        0.00000   0.00000   0.00000   0.00000   0.00000   0.00000
         Item               Value     Threshold  Converged?
 Maximum Force            0.000029     0.000450     YES
 RMS     Force            0.000009     0.000300     YES
 Maximum Displacement     0.000041     0.001800     YES
 RMS     Displacement     0.000031     0.001200     YES
 Predicted change in Energy=-1.424291D-09
 Optimization completed.
    -- Stationary point found.
                           ----------------------------
                           !   Optimized Parameters   !
                           ! (Angstroms and Degrees)  !
 --------------------------                            --------------------------
 ! Name  Definition              Value          Derivative Info.                !
 --------------------------------------------------------------------------------
 ! R1    R(1,2)                  1.331          -DE/DX =    0.0                 !
 ! R2    R(1,3)                  1.0875         -DE/DX =    0.0                 !
 ! R3    R(1,4)                  1.0875         -DE/DX =    0.0                 !
 ! R4    R(2,5)                  1.0875         -DE/DX =    0.0                 !
 ! R5    R(2,6)                  1.0875         -DE/DX =    0.0                 !
 ! A1    A(2,1,3)              121.8664         -DE/DX =    0.0                 !
 ! A2    A(2,1,4)              121.8664         -DE/DX =    0.0                 !
 ! A3    A(3,1,4)              116.2672         -DE/DX =    0.0                 !
 ! A4    A(1,2,5)              121.8664         -DE/DX =    0.0                 !
 ! A5    A(1,2,6)              121.8664         -DE/DX =    0.0                 !
 ! A6    A(5,2,6)              116.2672         -DE/DX =    0.0                 !
 ! D1    D(3,1,2,5)              0.0            -DE/DX =    0.0                 !
 ! D2    D(3,1,2,6)            179.9999         -DE/DX =    0.0                 !
 ! D3    D(4,1,2,5)           -179.9999         -DE/DX =    0.0                 !
 ! D4    D(4,1,2,6)              0.0            -DE/DX =    0.0                 !
 --------------------------------------------------------------------------------
 GradGradGradGradGradGradGradGradGradGradGradGradGradGradGradGradGradGrad

 1\1\GINC-ABCSIM\Freq\RB3LYP\6-31G(d)\C2H4\MATEUS\01-Oct-2019\0\\#N Geo
 m=AllCheck Guess=TCheck SCRF=Check GenChk RB3LYP/6-31G(d) Freq\\molecu
 le_0 C=C\\0,1\C,0.9482826912,0.0081768512,-0.07429071\C,2.2792473088,0
 .0081768512,-0.07429071\H,0.3741620066,0.9030547991,0.1541286244\H,0.3
 741619505,-0.8867016701,-0.3027079202\H,2.8533679934,0.9030547991,0.15
 41286244\H,2.8533680495,-0.8867016701,-0.3027079202\\Version=ES64L-G09
 RevD.01\State=1-A'\HF=-78.5874583\RMSD=3.278e-10\RMSF=1.180e-05\ZeroPo
 int=0.0512281\Thermal=0.05427\Dipole=0.,-0.0000003,0.0000011\DipoleDer
 iv=0.0119032,0.0000001,-0.0000003,0.0000004,0.1111062,0.0975451,-0.000
 0013,0.0975451,-0.2461496,0.0119032,-0.0000001,0.0000003,-0.0000004,0.
 1111062,0.0975451,0.0000013,0.0975451,-0.2461496,-0.0059516,0.057036,0
 .0145586,0.0760295,-0.0555531,-0.0487725,0.0194071,-0.0487728,0.123074
 7,-0.0059516,-0.0570361,-0.0145584,-0.0760298,-0.0555532,-0.0487726,-0
 .0194061,-0.0487723,0.1230748,-0.0059516,-0.057036,-0.0145586,-0.07602
 95,-0.0555531,-0.0487725,-0.0194071,-0.0487728,0.1230747,-0.0059516,0.
 0570361,0.0145584,0.0760298,-0.0555532,-0.0487726,0.0194061,-0.0487723
 ,0.1230748\Polar=30.7828021,0.,19.6807685,0.,2.8511117,9.2386669\PG=CS
  [X(C2H4)]\NImag=0\\0.88056278,0.00000004,0.60849380,-0.00000038,0.127
 88720,0.14011119,-0.58911298,0.,0.00000005,0.88056278,0.,-0.11131835,-
 0.01685283,-0.00000004,0.60849380,-0.00000005,-0.01685283,-0.04959543,
 0.00000038,0.12788720,0.14011119,-0.13219683,0.11747224,0.02998505,-0.
 01352808,0.02923845,0.00746314,0.13895456,0.12106660,-0.25274747,-0.05
 530947,-0.00160835,0.00415983,-0.00020791,-0.13233717,0.26136635,0.030
 90254,-0.05530953,-0.05017927,-0.00041054,-0.00020791,0.00492128,-0.03
 377933,0.06054280,0.03963137,-0.13219681,-0.11747228,-0.02998470,-0.01
 352808,-0.02923845,-0.00746313,0.01034569,0.01345262,0.00343378,0.1389
 5454,-0.12106664,-0.25274762,-0.05530908,0.00160836,0.00415983,-0.0002
 0791,-0.01345262,-0.01581130,-0.00464205,0.13233721,0.26136650,-0.0309
 0214,-0.05530903,-0.05017905,0.00041052,-0.00020790,0.00492128,-0.0034
 3380,-0.00464209,0.00119012,0.03377898,0.06054235,0.03963115,-0.013528
 08,-0.02923845,-0.00746314,-0.13219683,-0.11747224,-0.02998505,0.00145
 407,0.00017360,0.00004432,-0.00502941,0.00074730,0.00019074,0.13895456
 ,0.00160835,0.00415983,-0.00020791,-0.12106660,-0.25274747,-0.05530947
 ,-0.00017360,0.00075918,0.00240298,0.00074730,0.00227341,-0.00278631,0
 .13233717,0.26136635,0.00041054,-0.00020791,0.00492128,-0.03090254,-0.
 05530953,-0.05017927,-0.00004432,0.00240298,-0.00804162,0.00019076,-0.
 00278629,0.01247813,0.03377933,0.06054280,0.03963137,-0.01352808,0.029
 23845,0.00746313,-0.13219681,0.11747228,0.02998470,-0.00502941,-0.0007
 4730,-0.00019076,0.00145407,-0.00017360,-0.00004430,0.01034569,-0.0134
 5262,-0.00343378,0.13895454,-0.00160836,0.00415983,-0.00020791,0.12106
 664,-0.25274762,-0.05530908,-0.00074730,0.00227341,-0.00278629,0.00017
 360,0.00075919,0.00240297,0.01345262,-0.01581130,-0.00464205,-0.132337
 21,0.26136650,-0.00041052,-0.00020790,0.00492128,0.03090214,-0.0553090
 3,-0.05017905,-0.00019074,-0.00278631,0.01247813,0.00004430,0.00240297
 ,-0.00804163,0.00343380,-0.00464209,0.00119012,-0.03377898,0.06054235,
 0.03963115\\-0.00003226,0.00000006,-0.00000012,0.00003226,0.00000006,-
 0.00000012,0.00000154,-0.00000992,-0.00000247,0.00000152,0.00000986,0.
 00000258,-0.00000154,-0.00000992,-0.00000247,-0.00000152,0.00000986,0.
 00000258\\\@


 THE DIFFERENCE BETWEEN A NOOSE AND A HALO IS ONLY 12 INCHES.
 Job cpu time:       0 days  0 hours  0 minutes 16.6 seconds.
 File lengths (MBytes):  RWF=      5 Int=      0 D2E=      0 Chk=      1 Scr=      1
 Normal termination of Gaussian 09 at Tue Oct  1 16:16:38 2019.
