 Entering Gaussian System, Link 0=g09
 Initial command:
 /opt/g09/l1.exe /opt/g09/Gau-26630.inp -scrdir=/opt/g09/
 Entering Link 1 = /opt/g09/l1.exe PID=     26632.
  
 Copyright (c) 1988,1990,1992,1993,1995,1998,2003,2009,2011,
            Gaussian, Inc.  All Rights Reserved.
  
 This is part of the Gaussian(R) 09 program.  It is based on
 the Gaussian(R) 03 system (copyright 2003, Gaussian, Inc.),
 the Gaussian(R) 98 system (copyright 1998, Gaussian, Inc.),
 the Gaussian(R) 94 system (copyright 1995, Gaussian, Inc.),
 the Gaussian 92(TM) system (copyright 1992, Gaussian, Inc.),
 the Gaussian 90(TM) system (copyright 1990, Gaussian, Inc.),
 the Gaussian 88(TM) system (copyright 1988, Gaussian, Inc.),
 the Gaussian 86(TM) system (copyright 1986, Carnegie Mellon
 University), and the Gaussian 82(TM) system (copyright 1983,
 Carnegie Mellon University). Gaussian is a federally registered
 trademark of Gaussian, Inc.
  
 This software contains proprietary and confidential information,
 including trade secrets, belonging to Gaussian, Inc.
  
 This software is provided under written license and may be
 used, copied, transmitted, or stored only in accord with that
 written license.
  
 The following legend is applicable only to US Government
 contracts under FAR:
  
                    RESTRICTED RIGHTS LEGEND
  
 Use, reproduction and disclosure by the US Government is
 subject to restrictions as set forth in subparagraphs (a)
 and (c) of the Commercial Computer Software - Restricted
 Rights clause in FAR 52.227-19.
  
 Gaussian, Inc.
 340 Quinnipiac St., Bldg. 40, Wallingford CT 06492
  
  
 ---------------------------------------------------------------
 Warning -- This program may not be used in any manner that
 competes with the business of Gaussian, Inc. or will provide
 assistance to any competitor of Gaussian, Inc.  The licensee
 of this program is prohibited from giving any competitor of
 Gaussian, Inc. access to this program.  By using this program,
 the user acknowledges that Gaussian, Inc. is engaged in the
 business of creating and licensing software in the field of
 computational chemistry and represents and warrants to the
 licensee that it is not a competitor of Gaussian, Inc. and that
 it will not use this program in any manner prohibited above.
 ---------------------------------------------------------------
  

 Cite this work as:
 Gaussian 09, Revision C.01,
 M. J. Frisch, G. W. Trucks, H. B. Schlegel, G. E. Scuseria, 
 M. A. Robb, J. R. Cheeseman, G. Scalmani, V. Barone, B. Mennucci, 
 G. A. Petersson, H. Nakatsuji, M. Caricato, X. Li, H. P. Hratchian, 
 A. F. Izmaylov, J. Bloino, G. Zheng, J. L. Sonnenberg, M. Hada, 
 M. Ehara, K. Toyota, R. Fukuda, J. Hasegawa, M. Ishida, T. Nakajima, 
 Y. Honda, O. Kitao, H. Nakai, T. Vreven, J. A. Montgomery, Jr., 
 J. E. Peralta, F. Ogliaro, M. Bearpark, J. J. Heyd, E. Brothers, 
 K. N. Kudin, V. N. Staroverov, T. Keith, R. Kobayashi, J. Normand, 
 K. Raghavachari, A. Rendell, J. C. Burant, S. S. Iyengar, J. Tomasi, 
 M. Cossi, N. Rega, J. M. Millam, M. Klene, J. E. Knox, J. B. Cross, 
 V. Bakken, C. Adamo, J. Jaramillo, R. Gomperts, R. E. Stratmann, 
 O. Yazyev, A. J. Austin, R. Cammi, C. Pomelli, J. W. Ochterski, 
 R. L. Martin, K. Morokuma, V. G. Zakrzewski, G. A. Voth, 
 P. Salvador, J. J. Dannenberg, S. Dapprich, A. D. Daniels, 
 O. Farkas, J. B. Foresman, J. V. Ortiz, J. Cioslowski, 
 and D. J. Fox, Gaussian, Inc., Wallingford CT, 2010.
 
 ******************************************
 Gaussian 09:  EM64L-G09RevC.01 23-Sep-2011
                21-Aug-2019 
 ******************************************
 %nprocs=8
 Will use up to    8 processors via shared memory.
 %mem=16GB
 -------------------------
 #opt freq blyp/6-31g(d,p)
 -------------------------
 1/14=-1,18=20,19=15,26=3,38=1/1,3;
 2/9=110,12=2,17=6,18=5,40=1/2;
 3/5=1,6=6,7=101,11=2,16=1,25=1,30=1,71=1,74=402/1,2,3;
 4//1;
 5/5=2,38=5/2;
 6/7=2,8=2,9=2,10=2,28=1/1;
 7//1,2,3,16;
 1/14=-1,18=20,19=15/3(2);
 2/9=110/2;
 99//99;
 2/9=110/2;
 3/5=1,6=6,7=101,11=2,16=1,25=1,30=1,71=1,74=402/1,2,3;
 4/5=5,16=3/1;
 5/5=2,38=5/2;
 7//1,2,3,16;
 1/14=-1,18=20,19=15/3(-5);
 2/9=110/2;
 6/7=2,8=2,9=2,10=2,19=2,28=1/1;
 99/9=1/99;
 -----------------------------------------------
 molecule_/home/mateus/github/db_singletoxygen 0
 -----------------------------------------------
 Charge =  0 Multiplicity = 1
 Symbolic Z-Matrix:
 C                     0.97806  -0.06272  -0.08186 
 C                     2.48804  -0.06259  -0.06007 
 O                     3.12929  -0.93276  -0.652 
 C                     3.19869   1.05645   0.6296 
 C                     4.28126   1.56546   0.02044 
 C                     5.05704   2.62749   0.64841 
 C                     6.19615   3.13812   0.01928 
 C                     6.96614   4.14246   0.61543 
 C                     6.54497   4.60472   1.8597 
 O                     7.16912   5.57183   2.58365 
 C                     6.45583   5.73243   3.72707 
 C                     5.37609   4.87616   3.74781 
 C                     5.42084   4.13454   2.53175 
 C                     4.66522   3.12309   1.90049 
 O                     3.50496   2.59135   2.51644 
 C                     2.74982   1.57442   1.93541 
 O                     1.75912   1.12587   2.50521 
 H                     0.62267  -0.95378  -0.60987 
 H                     0.61498   0.82099  -0.61291 
 H                     0.55963  -0.10392   0.9234 
 H                     4.62465   1.19172  -0.94191 
 H                     6.50692   2.75378  -0.95024 
 H                     7.85234   4.54303   0.13826 
 H                     6.83949   6.47964   4.40948 
 H                     4.65145   4.80307   4.54663 
 

 GradGradGradGradGradGradGradGradGradGradGradGradGradGradGradGradGradGrad
 Berny optimization.
 Initialization pass.
                           ----------------------------
                           !    Initial Parameters    !
                           ! (Angstroms and Degrees)  !
 --------------------------                            --------------------------
 ! Name  Definition              Value          Derivative Info.                !
 --------------------------------------------------------------------------------
 ! R1    R(1,2)                  1.5101         estimate D2E/DX2                !
 ! R2    R(1,18)                 1.095          estimate D2E/DX2                !
 ! R3    R(1,19)                 1.0931         estimate D2E/DX2                !
 ! R4    R(1,20)                 1.0896         estimate D2E/DX2                !
 ! R5    R(2,3)                  1.2324         estimate D2E/DX2                !
 ! R6    R(2,4)                  1.4943         estimate D2E/DX2                !
 ! R7    R(4,5)                  1.3424         estimate D2E/DX2                !
 ! R8    R(4,16)                 1.4748         estimate D2E/DX2                !
 ! R9    R(5,6)                  1.4574         estimate D2E/DX2                !
 ! R10   R(5,21)                 1.088          estimate D2E/DX2                !
 ! R11   R(6,7)                  1.3979         estimate D2E/DX2                !
 ! R12   R(6,14)                 1.4024         estimate D2E/DX2                !
 ! R13   R(7,8)                  1.3989         estimate D2E/DX2                !
 ! R14   R(7,22)                 1.0882         estimate D2E/DX2                !
 ! R15   R(8,9)                  1.3926         estimate D2E/DX2                !
 ! R16   R(8,23)                 1.0833         estimate D2E/DX2                !
 ! R17   R(9,10)                 1.3598         estimate D2E/DX2                !
 ! R18   R(9,13)                 1.3915         estimate D2E/DX2                !
 ! R19   R(10,11)                1.3572         estimate D2E/DX2                !
 ! R20   R(11,12)                1.3782         estimate D2E/DX2                !
 ! R21   R(11,24)                1.0822         estimate D2E/DX2                !
 ! R22   R(12,13)                1.4251         estimate D2E/DX2                !
 ! R23   R(12,25)                1.081          estimate D2E/DX2                !
 ! R24   R(13,14)                1.4116         estimate D2E/DX2                !
 ! R25   R(14,15)                1.4172         estimate D2E/DX2                !
 ! R26   R(15,16)                1.3935         estimate D2E/DX2                !
 ! R27   R(16,17)                1.2277         estimate D2E/DX2                !
 ! A1    A(2,1,18)             109.3624         estimate D2E/DX2                !
 ! A2    A(2,1,19)             109.8205         estimate D2E/DX2                !
 ! A3    A(2,1,20)             111.7561         estimate D2E/DX2                !
 ! A4    A(18,1,19)            108.4098         estimate D2E/DX2                !
 ! A5    A(18,1,20)            106.825          estimate D2E/DX2                !
 ! A6    A(19,1,20)            110.5624         estimate D2E/DX2                !
 ! A7    A(1,2,3)              120.883          estimate D2E/DX2                !
 ! A8    A(1,2,4)              118.8324         estimate D2E/DX2                !
 ! A9    A(3,2,4)              120.1982         estimate D2E/DX2                !
 ! A10   A(2,4,5)              117.2603         estimate D2E/DX2                !
 ! A11   A(2,4,16)             121.7985         estimate D2E/DX2                !
 ! A12   A(5,4,16)             120.935          estimate D2E/DX2                !
 ! A13   A(4,5,6)              120.6663         estimate D2E/DX2                !
 ! A14   A(4,5,21)             121.7117         estimate D2E/DX2                !
 ! A15   A(6,5,21)             117.6092         estimate D2E/DX2                !
 ! A16   A(5,6,7)              120.399          estimate D2E/DX2                !
 ! A17   A(5,6,14)             119.5693         estimate D2E/DX2                !
 ! A18   A(7,6,14)             120.0251         estimate D2E/DX2                !
 ! A19   A(6,7,8)              121.264          estimate D2E/DX2                !
 ! A20   A(6,7,22)             120.3082         estimate D2E/DX2                !
 ! A21   A(8,7,22)             118.4268         estimate D2E/DX2                !
 ! A22   A(7,8,9)              116.9115         estimate D2E/DX2                !
 ! A23   A(7,8,23)             121.8733         estimate D2E/DX2                !
 ! A24   A(9,8,23)             121.2146         estimate D2E/DX2                !
 ! A25   A(8,9,10)             124.9578         estimate D2E/DX2                !
 ! A26   A(8,9,13)             124.3106         estimate D2E/DX2                !
 ! A27   A(10,9,13)            110.7316         estimate D2E/DX2                !
 ! A28   A(9,10,11)            106.9459         estimate D2E/DX2                !
 ! A29   A(10,11,12)           110.5425         estimate D2E/DX2                !
 ! A30   A(10,11,24)           115.2536         estimate D2E/DX2                !
 ! A31   A(12,11,24)           134.2038         estimate D2E/DX2                !
 ! A32   A(11,12,13)           106.6117         estimate D2E/DX2                !
 ! A33   A(11,12,25)           125.331          estimate D2E/DX2                !
 ! A34   A(13,12,25)           128.0573         estimate D2E/DX2                !
 ! A35   A(9,13,12)            105.168          estimate D2E/DX2                !
 ! A36   A(9,13,14)            117.2949         estimate D2E/DX2                !
 ! A37   A(12,13,14)           137.5369         estimate D2E/DX2                !
 ! A38   A(6,14,13)            120.1935         estimate D2E/DX2                !
 ! A39   A(6,14,15)            118.9588         estimate D2E/DX2                !
 ! A40   A(13,14,15)           120.8477         estimate D2E/DX2                !
 ! A41   A(14,15,16)           122.4282         estimate D2E/DX2                !
 ! A42   A(4,16,15)            117.4224         estimate D2E/DX2                !
 ! A43   A(4,16,17)            121.8853         estimate D2E/DX2                !
 ! A44   A(15,16,17)           120.688          estimate D2E/DX2                !
 ! D1    D(18,1,2,3)             4.2323         estimate D2E/DX2                !
 ! D2    D(18,1,2,4)          -179.1406         estimate D2E/DX2                !
 ! D3    D(19,1,2,3)          -114.6154         estimate D2E/DX2                !
 ! D4    D(19,1,2,4)            62.0117         estimate D2E/DX2                !
 ! D5    D(20,1,2,3)           122.3042         estimate D2E/DX2                !
 ! D6    D(20,1,2,4)           -61.0688         estimate D2E/DX2                !
 ! D7    D(1,2,4,5)           -138.0247         estimate D2E/DX2                !
 ! D8    D(1,2,4,16)            42.8738         estimate D2E/DX2                !
 ! D9    D(3,2,4,5)             38.6261         estimate D2E/DX2                !
 ! D10   D(3,2,4,16)          -140.4754         estimate D2E/DX2                !
 ! D11   D(2,4,5,6)           -177.8958         estimate D2E/DX2                !
 ! D12   D(2,4,5,21)             0.7728         estimate D2E/DX2                !
 ! D13   D(16,4,5,6)             1.2139         estimate D2E/DX2                !
 ! D14   D(16,4,5,21)          179.8825         estimate D2E/DX2                !
 ! D15   D(2,4,16,15)          177.9983         estimate D2E/DX2                !
 ! D16   D(2,4,16,17)           -1.2532         estimate D2E/DX2                !
 ! D17   D(5,4,16,15)           -1.0705         estimate D2E/DX2                !
 ! D18   D(5,4,16,17)          179.678          estimate D2E/DX2                !
 ! D19   D(4,5,6,7)            178.9351         estimate D2E/DX2                !
 ! D20   D(4,5,6,14)            -0.1321         estimate D2E/DX2                !
 ! D21   D(21,5,6,7)             0.2133         estimate D2E/DX2                !
 ! D22   D(21,5,6,14)         -178.854          estimate D2E/DX2                !
 ! D23   D(5,6,7,8)           -178.969          estimate D2E/DX2                !
 ! D24   D(5,6,7,22)             0.6603         estimate D2E/DX2                !
 ! D25   D(14,6,7,8)             0.094          estimate D2E/DX2                !
 ! D26   D(14,6,7,22)          179.7233         estimate D2E/DX2                !
 ! D27   D(5,6,14,13)          178.8462         estimate D2E/DX2                !
 ! D28   D(5,6,14,15)           -1.0732         estimate D2E/DX2                !
 ! D29   D(7,6,14,13)           -0.2246         estimate D2E/DX2                !
 ! D30   D(7,6,14,15)          179.856          estimate D2E/DX2                !
 ! D31   D(6,7,8,9)              0.0585         estimate D2E/DX2                !
 ! D32   D(6,7,8,23)           179.8001         estimate D2E/DX2                !
 ! D33   D(22,7,8,9)          -179.5777         estimate D2E/DX2                !
 ! D34   D(22,7,8,23)            0.164          estimate D2E/DX2                !
 ! D35   D(7,8,9,10)           179.9259         estimate D2E/DX2                !
 ! D36   D(7,8,9,13)            -0.0862         estimate D2E/DX2                !
 ! D37   D(23,8,9,10)            0.1825         estimate D2E/DX2                !
 ! D38   D(23,8,9,13)         -179.8297         estimate D2E/DX2                !
 ! D39   D(8,9,10,11)         -179.9342         estimate D2E/DX2                !
 ! D40   D(13,9,10,11)           0.0765         estimate D2E/DX2                !
 ! D41   D(8,9,13,12)          179.8637         estimate D2E/DX2                !
 ! D42   D(8,9,13,14)           -0.0396         estimate D2E/DX2                !
 ! D43   D(10,9,13,12)          -0.1469         estimate D2E/DX2                !
 ! D44   D(10,9,13,14)         179.9497         estimate D2E/DX2                !
 ! D45   D(9,10,11,12)           0.0299         estimate D2E/DX2                !
 ! D46   D(9,10,11,24)        -179.9898         estimate D2E/DX2                !
 ! D47   D(10,11,12,13)         -0.12           estimate D2E/DX2                !
 ! D48   D(10,11,12,25)        179.8636         estimate D2E/DX2                !
 ! D49   D(24,11,12,13)        179.9049         estimate D2E/DX2                !
 ! D50   D(24,11,12,25)         -0.1116         estimate D2E/DX2                !
 ! D51   D(11,12,13,9)           0.1586         estimate D2E/DX2                !
 ! D52   D(11,12,13,14)       -179.9686         estimate D2E/DX2                !
 ! D53   D(25,12,13,9)        -179.8244         estimate D2E/DX2                !
 ! D54   D(25,12,13,14)          0.0484         estimate D2E/DX2                !
 ! D55   D(9,13,14,6)            0.1953         estimate D2E/DX2                !
 ! D56   D(9,13,14,15)        -179.8869         estimate D2E/DX2                !
 ! D57   D(12,13,14,6)        -179.6666         estimate D2E/DX2                !
 ! D58   D(12,13,14,15)          0.2513         estimate D2E/DX2                !
 ! D59   D(6,14,15,16)           1.2177         estimate D2E/DX2                !
 ! D60   D(13,14,15,16)       -178.7012         estimate D2E/DX2                !
 ! D61   D(14,15,16,4)          -0.1692         estimate D2E/DX2                !
 ! D62   D(14,15,16,17)        179.0918         estimate D2E/DX2                !
 --------------------------------------------------------------------------------
 Trust Radius=3.00D-01 FncErr=1.00D-07 GrdErr=1.00D-06
 Number of steps in this run=    143 maximum allowed number of steps=    150.
 GradGradGradGradGradGradGradGradGradGradGradGradGradGradGradGradGradGrad

                          Input orientation:                          
 ---------------------------------------------------------------------
 Center     Atomic      Atomic             Coordinates (Angstroms)
 Number     Number       Type             X           Y           Z
 ---------------------------------------------------------------------
      1          6           0        0.978060   -0.062720   -0.081860
      2          6           0        2.488040   -0.062590   -0.060070
      3          8           0        3.129290   -0.932760   -0.652000
      4          6           0        3.198690    1.056450    0.629600
      5          6           0        4.281260    1.565460    0.020440
      6          6           0        5.057040    2.627490    0.648410
      7          6           0        6.196150    3.138120    0.019280
      8          6           0        6.966140    4.142460    0.615430
      9          6           0        6.544970    4.604720    1.859700
     10          8           0        7.169120    5.571830    2.583650
     11          6           0        6.455830    5.732430    3.727070
     12          6           0        5.376090    4.876160    3.747810
     13          6           0        5.420840    4.134540    2.531750
     14          6           0        4.665220    3.123090    1.900490
     15          8           0        3.504960    2.591350    2.516440
     16          6           0        2.749820    1.574420    1.935410
     17          8           0        1.759120    1.125870    2.505210
     18          1           0        0.622670   -0.953780   -0.609870
     19          1           0        0.614980    0.820990   -0.612910
     20          1           0        0.559630   -0.103920    0.923400
     21          1           0        4.624650    1.191720   -0.941910
     22          1           0        6.506920    2.753780   -0.950240
     23          1           0        7.852340    4.543030    0.138260
     24          1           0        6.839490    6.479640    4.409480
     25          1           0        4.651450    4.803070    4.546630
 ---------------------------------------------------------------------
                    Distance matrix (angstroms):
                    1          2          3          4          5
     1  C    0.000000
     2  C    1.510137   0.000000
     3  O    2.389523   1.232387   0.000000
     4  C    2.586487   1.494295   2.367334   0.000000
     5  C    3.684096   2.423359   2.832016   1.342432   0.000000
     6  C    4.940506   3.786586   4.252372   2.433513   1.457425
     7  C    6.122423   4.899073   5.140847   3.700082   2.477915
     8  C    7.350296   6.179978   6.487346   4.870045   3.768756
     9  C    7.519650   6.475182   6.974180   5.030006   4.212406
    10  O    8.785347   7.787712   8.312602   6.322285   5.564241
    11  C    8.837289   7.979226   8.641000   6.485990   5.985942
    12  C    7.642092   6.872557   7.625614   5.390222   5.104182
    13  C    6.647273   5.738880   6.408197   4.246265   3.769017
    14  C    5.260632   4.328102   5.032316   2.834938   2.471482
    15  O    4.492268   3.836134   4.753892   2.451507   2.808043
    16  C    3.144637   2.594277   3.622794   1.474760   2.452040
    17  O    2.952242   2.919661   4.010399   2.365395   3.567704
    18  H    1.095027   2.139183   2.507062   3.494737   4.486551
    19  H    1.093062   2.143525   3.065766   2.876600   3.794335
    20  H    1.089646   2.165107   3.126022   2.897829   4.177642
    21  H    3.951066   2.629836   2.614109   2.126336   1.087987
    22  H    6.265385   4.987558   5.008783   4.039952   2.703310
    23  H    8.277506   7.072962   7.274338   5.835590   4.651066
    24  H    9.865646   9.039511   9.712252   7.546781   7.068053
    25  H    7.654582   7.041071   7.889390   5.611666   5.577235
                    6          7          8          9         10
     6  C    0.000000
     7  C    1.397898   0.000000
     8  C    2.437393   1.398920   0.000000
     9  C    2.755104   2.379020   1.392579   0.000000
    10  O    4.107940   3.666825   2.440940   1.359768   0.000000
    11  C    4.590797   4.532724   3.531391   2.183288   1.357197
    12  C    3.842472   4.194665   3.588646   2.237168   2.248151
    13  C    2.439369   2.811844   2.461767   1.391542   2.263842
    14  C    1.402443   2.425474   2.825726   2.393815   3.568270
    15  O    2.428949   3.711774   4.242587   3.704946   4.723753
    16  C    2.844045   4.241922   5.110238   4.857120   5.994140
    17  O    4.071713   5.469573   6.307467   5.951759   7.002915
    18  H    5.837157   6.942849   8.228769   8.489366   9.779477
    19  H    4.958454   6.076036   7.271741   7.456219   8.703173
    20  H    5.269053   6.564953   7.692201   7.672825   8.868818
    21  H    2.185753   2.679920   4.076119   4.815103   6.171650
    22  H    2.161893   1.088239   2.142577   3.364995   4.568183
    23  H    3.426842   2.175062   1.083281   2.162493   2.739553
    24  H    5.671141   5.554593   4.457944   3.178592   2.065534
    25  H    4.482608   5.065082   4.609613   3.293077   3.283739
                   11         12         13         14         15
    11  C    0.000000
    12  C    1.378211   0.000000
    13  C    2.247943   1.425063   0.000000
    14  C    3.653948   2.644084   1.411553   0.000000
    15  O    4.476566   3.199649   2.460135   1.417161   0.000000
    16  C    5.850949   4.591685   3.747557   2.463403   1.393549
    17  O    6.691220   5.356417   4.739303   3.577708   2.279411
    18  H    9.876245   8.693249   7.667021   6.266178   5.536186
    19  H    8.779134   7.624202   6.630595   5.293514   4.612916
    20  H    8.757210   7.481763   6.647007   5.312642   4.298514
    21  H    6.765400   6.011093   4.621734   3.436724   3.895235
    22  H    5.545466   5.277779   3.900041   3.413929   4.588684
    23  H    4.030443   4.389948   3.436255   3.908890   5.325834
    24  H    1.082220   2.269470   3.322338   4.721113   5.460906
    25  H    2.188875   1.080999   2.258016   3.134418   3.213692
                   16         17         18         19         20
    16  C    0.000000
    17  O    1.227744   0.000000
    18  H    4.170733   3.914101   0.000000
    19  H    3.408685   3.335368   1.774789   0.000000
    20  H    2.939034   2.335226   1.754182   1.794093   0.000000
    21  H    3.455491   4.483105   4.552940   4.040190   4.656442
    22  H    4.881974   6.093589   6.963207   6.210026   6.859099
    23  H    6.170746   7.376094   9.112779   8.172956   8.682984
    24  H    6.848913   7.622287  10.913224   9.797410   9.743339
    25  H    4.567149   5.104387   8.715611   7.666218   7.345021
                   21         22         23         24         25
    21  H    0.000000
    22  H    2.446026   0.000000
    23  H    4.776613   2.489257   0.000000
    24  H    7.842512   6.535995   4.797879   0.000000
    25  H    6.570132   6.152880   5.454085   2.759930   0.000000
 Stoichiometry    C13H8O4
 Framework group  C1[X(C13H8O4)]
 Deg. of freedom    69
 Full point group                 C1      NOp   1
 Largest Abelian subgroup         C1      NOp   1
 Largest concise Abelian subgroup C1      NOp   1
                         Standard orientation:                         
 ---------------------------------------------------------------------
 Center     Atomic      Atomic             Coordinates (Angstroms)
 Number     Number       Type             X           Y           Z
 ---------------------------------------------------------------------
      1          6           0       -4.504000   -0.426548    0.706527
      2          6           0       -3.557252    0.433892   -0.095860
      3          8           0       -3.971677    1.399207   -0.740219
      4          6           0       -2.092828    0.142563   -0.036625
      5          6           0       -1.260162    1.191954    0.050380
      6          6           0        0.183897    0.995698    0.066657
      7          6           0        1.046270    2.093767    0.135054
      8          6           0        2.435263    1.927468    0.130251
      9          6           0        2.913486    0.621851    0.053154
     10          8           0        4.227693    0.273253    0.035608
     11          6           0        4.276786   -1.080539   -0.046970
     12          6           0        3.004558   -1.609276   -0.083587
     13          6           0        2.103348   -0.507407   -0.016419
     14          6           0        0.706617   -0.303624   -0.006639
     15          8           0       -0.188256   -1.400563   -0.072008
     16          6           0       -1.571928   -1.236060   -0.091208
     17          8           0       -2.317599   -2.208626   -0.165009
     18          1           0       -5.532118   -0.089165    0.538506
     19          1           0       -4.279089   -0.330986    1.771923
     20          1           0       -4.460383   -1.470790    0.398333
     21          1           0       -1.630555    2.214203    0.089537
     22          1           0        0.645688    3.104233    0.187539
     23          1           0        3.112586    2.771440    0.179658
     24          1           0        5.271633   -1.505926   -0.069946
     25          1           0        2.766628   -2.661620   -0.150815
 ---------------------------------------------------------------------
 Rotational constants (GHZ):      1.2670745      0.2758013      0.2305854
 Standard basis: 6-31G(d,p) (6D, 7F)
 There are   295 symmetry adapted basis functions of A   symmetry.
 Integral buffers will be    131072 words long.
 Raffenetti 2 integral format.
 Two-electron integral symmetry is turned on.
   295 basis functions,   532 primitive gaussians,   295 cartesian basis functions
    59 alpha electrons       59 beta electrons
       nuclear repulsion energy      1112.1148610976 Hartrees.
 NAtoms=   25 NActive=   25 NUniq=   25 SFac= 1.00D+00 NAtFMM=   60 NAOKFM=F Big=F
 One-electron integrals computed using PRISM.
 NBasis=   295 RedAO= T  NBF=   295
 NBsUse=   295 1.00D-06 NBFU=   295
 Harris functional with IExCor=  402 diagonalized for initial guess.
 ExpMin= 1.61D-01 ExpMax= 5.48D+03 ExpMxC= 8.25D+02 IAcc=1 IRadAn=         1 AccDes= 0.00D+00
 HarFok:  IExCor=  402 AccDes= 0.00D+00 IRadAn=         1 IDoV= 1
 ScaDFX=  1.000000  1.000000  1.000000  1.000000
 FoFCou: FMM=F IPFlag=           0 FMFlag=      100000 FMFlg1=           0
         NFxFlg=           0 DoJE=T BraDBF=F KetDBF=T FulRan=T
         Omega=  0.000000  0.000000  1.000000  0.000000  0.000000 ICntrl=     500 IOpCl=  0
         NMat0=    1 NMatS0=    1 NMatT0=    0 NMatD0=    1 NMtDS0=    0 NMtDT0=    0
         I1Cent=           4 NGrid=           0.
 Petite list used in FoFCou.
 Initial guess orbital symmetries:
       Occupied  (A) (A) (A) (A) (A) (A) (A) (A) (A) (A) (A) (A)
                 (A) (A) (A) (A) (A) (A) (A) (A) (A) (A) (A) (A)
                 (A) (A) (A) (A) (A) (A) (A) (A) (A) (A) (A) (A)
                 (A) (A) (A) (A) (A) (A) (A) (A) (A) (A) (A) (A)
                 (A) (A) (A) (A) (A) (A) (A) (A) (A) (A) (A)
       Virtual   (A) (A) (A) (A) (A) (A) (A) (A) (A) (A) (A) (A)
                 (A) (A) (A) (A) (A) (A) (A) (A) (A) (A) (A) (A)
                 (A) (A) (A) (A) (A) (A) (A) (A) (A) (A) (A) (A)
                 (A) (A) (A) (A) (A) (A) (A) (A) (A) (A) (A) (A)
                 (A) (A) (A) (A) (A) (A) (A) (A) (A) (A) (A) (A)
                 (A) (A) (A) (A) (A) (A) (A) (A) (A) (A) (A) (A)
                 (A) (A) (A) (A) (A) (A) (A) (A) (A) (A) (A) (A)
                 (A) (A) (A) (A) (A) (A) (A) (A) (A) (A) (A) (A)
                 (A) (A) (A) (A) (A) (A) (A) (A) (A) (A) (A) (A)
                 (A) (A) (A) (A) (A) (A) (A) (A) (A) (A) (A) (A)
                 (A) (A) (A) (A) (A) (A) (A) (A) (A) (A) (A) (A)
                 (A) (A) (A) (A) (A) (A) (A) (A) (A) (A) (A) (A)
                 (A) (A) (A) (A) (A) (A) (A) (A) (A) (A) (A) (A)
                 (A) (A) (A) (A) (A) (A) (A) (A) (A) (A) (A) (A)
                 (A) (A) (A) (A) (A) (A) (A) (A) (A) (A) (A) (A)
                 (A) (A) (A) (A) (A) (A) (A) (A) (A) (A) (A) (A)
                 (A) (A) (A) (A) (A) (A) (A) (A) (A) (A) (A) (A)
                 (A) (A) (A) (A) (A) (A) (A) (A) (A) (A) (A) (A)
                 (A) (A) (A) (A) (A) (A) (A) (A) (A) (A) (A) (A)
                 (A) (A) (A) (A) (A) (A) (A) (A)
 The electronic state of the initial guess is 1-A.
 Requested convergence on RMS density matrix=1.00D-08 within 128 cycles.
 Requested convergence on MAX density matrix=1.00D-06.
 Requested convergence on             energy=1.00D-06.
 No special actions if energy rises.
 Keep J ints in memory in canonical form, NReq=966583335.
 Integral accuracy reduced to 1.0D-05 until final iterations.
 EnCoef did     2 forward-backward iterations
 Initial convergence to 1.0D-05 achieved.  Increase integral accuracy.
 SCF Done:  E(RB-LYP) =  -800.856066622     A.U. after   18 cycles
             Convg  =    0.6117D-08             -V/T =  2.0088

 **********************************************************************

            Population analysis using the SCF density.

 **********************************************************************

 Orbital symmetries:
       Occupied  (A) (A) (A) (A) (A) (A) (A) (A) (A) (A) (A) (A)
                 (A) (A) (A) (A) (A) (A) (A) (A) (A) (A) (A) (A)
                 (A) (A) (A) (A) (A) (A) (A) (A) (A) (A) (A) (A)
                 (A) (A) (A) (A) (A) (A) (A) (A) (A) (A) (A) (A)
                 (A) (A) (A) (A) (A) (A) (A) (A) (A) (A) (A)
       Virtual   (A) (A) (A) (A) (A) (A) (A) (A) (A) (A) (A) (A)
                 (A) (A) (A) (A) (A) (A) (A) (A) (A) (A) (A) (A)
                 (A) (A) (A) (A) (A) (A) (A) (A) (A) (A) (A) (A)
                 (A) (A) (A) (A) (A) (A) (A) (A) (A) (A) (A) (A)
                 (A) (A) (A) (A) (A) (A) (A) (A) (A) (A) (A) (A)
                 (A) (A) (A) (A) (A) (A) (A) (A) (A) (A) (A) (A)
                 (A) (A) (A) (A) (A) (A) (A) (A) (A) (A) (A) (A)
                 (A) (A) (A) (A) (A) (A) (A) (A) (A) (A) (A) (A)
                 (A) (A) (A) (A) (A) (A) (A) (A) (A) (A) (A) (A)
                 (A) (A) (A) (A) (A) (A) (A) (A) (A) (A) (A) (A)
                 (A) (A) (A) (A) (A) (A) (A) (A) (A) (A) (A) (A)
                 (A) (A) (A) (A) (A) (A) (A) (A) (A) (A) (A) (A)
                 (A) (A) (A) (A) (A) (A) (A) (A) (A) (A) (A) (A)
                 (A) (A) (A) (A) (A) (A) (A) (A) (A) (A) (A) (A)
                 (A) (A) (A) (A) (A) (A) (A) (A) (A) (A) (A) (A)
                 (A) (A) (A) (A) (A) (A) (A) (A) (A) (A) (A) (A)
                 (A) (A) (A) (A) (A) (A) (A) (A) (A) (A) (A) (A)
                 (A) (A) (A) (A) (A) (A) (A) (A) (A) (A) (A) (A)
                 (A) (A) (A) (A) (A) (A) (A) (A) (A) (A) (A) (A)
                 (A) (A) (A) (A) (A) (A) (A) (A)
 The electronic state is 1-A.
 Alpha  occ. eigenvalues --  -18.88367 -18.86971 -18.78616 -18.78450 -10.05809
 Alpha  occ. eigenvalues --  -10.01866 -10.01064 -10.00156 -10.00029  -9.96456
 Alpha  occ. eigenvalues --   -9.95844  -9.95769  -9.95251  -9.95128  -9.95115
 Alpha  occ. eigenvalues --   -9.94770  -9.91396  -1.03720  -1.00584  -0.93171
 Alpha  occ. eigenvalues --   -0.92477  -0.79984  -0.75570  -0.73235  -0.69709
 Alpha  occ. eigenvalues --   -0.67465  -0.65704  -0.60855  -0.58768  -0.56343
 Alpha  occ. eigenvalues --   -0.55270  -0.51251  -0.50252  -0.47516  -0.45483
 Alpha  occ. eigenvalues --   -0.44238  -0.42528  -0.41704  -0.40874  -0.40108
 Alpha  occ. eigenvalues --   -0.39245  -0.38397  -0.37708  -0.37254  -0.36695
 Alpha  occ. eigenvalues --   -0.35371  -0.34795  -0.33818  -0.33331  -0.32046
 Alpha  occ. eigenvalues --   -0.30997  -0.30610  -0.29578  -0.27139  -0.26224
 Alpha  occ. eigenvalues --   -0.22253  -0.21490  -0.19911  -0.19215
 Alpha virt. eigenvalues --   -0.09443  -0.06266  -0.04377  -0.01889   0.00952
 Alpha virt. eigenvalues --    0.05191   0.06095   0.07250   0.08819   0.10259
 Alpha virt. eigenvalues --    0.10685   0.11068   0.13063   0.13233   0.14140
 Alpha virt. eigenvalues --    0.14189   0.16300   0.16725   0.17482   0.19476
 Alpha virt. eigenvalues --    0.22015   0.23805   0.24365   0.26593   0.28790
 Alpha virt. eigenvalues --    0.29732   0.31300   0.32138   0.33693   0.37214
 Alpha virt. eigenvalues --    0.39684   0.40782   0.41760   0.43276   0.45327
 Alpha virt. eigenvalues --    0.46190   0.46842   0.47085   0.48747   0.49897
 Alpha virt. eigenvalues --    0.50224   0.51162   0.51555   0.52277   0.52739
 Alpha virt. eigenvalues --    0.53072   0.54373   0.54864   0.56321   0.57100
 Alpha virt. eigenvalues --    0.57155   0.57870   0.58357   0.59715   0.60491
 Alpha virt. eigenvalues --    0.61448   0.62887   0.64090   0.66903   0.70270
 Alpha virt. eigenvalues --    0.71547   0.72500   0.72883   0.73312   0.74619
 Alpha virt. eigenvalues --    0.75657   0.76920   0.77878   0.78586   0.79954
 Alpha virt. eigenvalues --    0.81020   0.82228   0.84225   0.85807   0.86177
 Alpha virt. eigenvalues --    0.86866   0.89060   0.90261   0.90854   0.91430
 Alpha virt. eigenvalues --    0.92213   0.93294   0.94733   0.95387   0.98825
 Alpha virt. eigenvalues --    0.99587   1.02063   1.02577   1.04702   1.05779
 Alpha virt. eigenvalues --    1.07938   1.09610   1.10875   1.13862   1.14325
 Alpha virt. eigenvalues --    1.15768   1.17040   1.20870   1.23424   1.24220
 Alpha virt. eigenvalues --    1.25850   1.26929   1.28889   1.30637   1.31321
 Alpha virt. eigenvalues --    1.31855   1.32806   1.34605   1.35891   1.36344
 Alpha virt. eigenvalues --    1.36903   1.39024   1.40240   1.43429   1.48702
 Alpha virt. eigenvalues --    1.51079   1.52791   1.53893   1.57103   1.60394
 Alpha virt. eigenvalues --    1.62824   1.63336   1.65781   1.67633   1.68410
 Alpha virt. eigenvalues --    1.69784   1.71565   1.72541   1.74334   1.74583
 Alpha virt. eigenvalues --    1.75826   1.76216   1.76862   1.78591   1.79673
 Alpha virt. eigenvalues --    1.82017   1.82527   1.83495   1.84287   1.86400
 Alpha virt. eigenvalues --    1.87313   1.89513   1.90619   1.91211   1.93114
 Alpha virt. eigenvalues --    1.94271   1.97427   1.97843   1.98216   1.99263
 Alpha virt. eigenvalues --    2.01342   2.01951   2.05324   2.05817   2.06578
 Alpha virt. eigenvalues --    2.09274   2.11353   2.13996   2.14693   2.16478
 Alpha virt. eigenvalues --    2.16976   2.19362   2.21550   2.23015   2.23457
 Alpha virt. eigenvalues --    2.24024   2.25274   2.28523   2.32869   2.34053
 Alpha virt. eigenvalues --    2.35524   2.35753   2.36682   2.37925   2.38769
 Alpha virt. eigenvalues --    2.42916   2.45178   2.45734   2.47687   2.48300
 Alpha virt. eigenvalues --    2.48922   2.49637   2.50511   2.55641   2.56162
 Alpha virt. eigenvalues --    2.56671   2.58182   2.59826   2.61074   2.63343
 Alpha virt. eigenvalues --    2.64358   2.66037   2.67027   2.69154   2.72532
 Alpha virt. eigenvalues --    2.73542   2.76028   2.77255   2.82850   2.85139
 Alpha virt. eigenvalues --    2.87479   2.89363   2.93992   2.96823   2.97892
 Alpha virt. eigenvalues --    2.98470   3.04527   3.08406   3.11052   3.14886
 Alpha virt. eigenvalues --    3.15973   3.21530   3.23956   3.28189   3.35635
 Alpha virt. eigenvalues --    3.38114   3.50021   3.55716   3.68087   3.85438
 Alpha virt. eigenvalues --    3.90075   3.97614   4.00898   4.03416   4.05049
 Alpha virt. eigenvalues --    4.09369   4.12798   4.23747   4.28430   4.38207
 Alpha virt. eigenvalues --    4.43354   4.46871   4.52120   4.58948   4.65113
 Alpha virt. eigenvalues --    4.84155
          Condensed to atoms (all electrons):
              1          2          3          4          5          6
     1  C    5.204959   0.324682  -0.089321  -0.118749   0.007901  -0.000169
     2  C    0.324682   4.635206   0.576635   0.230465  -0.029172   0.006076
     3  O   -0.089321   0.576635   7.998151  -0.095711   0.005230   0.000770
     4  C   -0.118749   0.230465  -0.095711   5.490096   0.396579  -0.000163
     5  C    0.007901  -0.029172   0.005230   0.396579   5.164715   0.339887
     6  C   -0.000169   0.006076   0.000770  -0.000163   0.339887   4.918062
     7  C    0.000000  -0.000311  -0.000016   0.009044  -0.058205   0.415643
     8  C    0.000000   0.000001   0.000000  -0.000319   0.008186   0.012899
     9  C    0.000000   0.000000   0.000000  -0.000059   0.000095  -0.049763
    10  O    0.000000   0.000000   0.000000   0.000000  -0.000002  -0.000199
    11  C    0.000000   0.000000   0.000000   0.000000   0.000000  -0.000284
    12  C    0.000000   0.000000   0.000000   0.000054  -0.000114   0.011182
    13  C    0.000000   0.000015   0.000000   0.001037   0.009993  -0.012870
    14  C   -0.000001   0.001071  -0.000008  -0.015869  -0.052805   0.337221
    15  O   -0.000129   0.001784  -0.000009  -0.075932  -0.024564  -0.041152
    16  C   -0.005301  -0.027284   0.001423   0.298458  -0.035270  -0.022228
    17  O   -0.007949  -0.003041   0.000013  -0.091498   0.004653   0.000807
    18  H    0.339205  -0.018226   0.005279   0.005786  -0.000115   0.000002
    19  H    0.354205  -0.021982   0.001478   0.005221  -0.001039  -0.000024
    20  H    0.347015  -0.012117   0.002040  -0.001119   0.000147   0.000005
    21  H    0.001173  -0.004598   0.011509  -0.052104   0.359271  -0.041866
    22  H    0.000000  -0.000001   0.000000   0.000397  -0.011162  -0.041236
    23  H    0.000000   0.000000   0.000000   0.000003  -0.000156   0.003464
    24  H    0.000000   0.000000   0.000000   0.000000   0.000000   0.000004
    25  H    0.000000   0.000000   0.000000   0.000002   0.000004  -0.000098
              7          8          9         10         11         12
     1  C    0.000000   0.000000   0.000000   0.000000   0.000000   0.000000
     2  C   -0.000311   0.000001   0.000000   0.000000   0.000000   0.000000
     3  O   -0.000016   0.000000   0.000000   0.000000   0.000000   0.000000
     4  C    0.009044  -0.000319  -0.000059   0.000000   0.000000   0.000054
     5  C   -0.058205   0.008186   0.000095  -0.000002   0.000000  -0.000114
     6  C    0.415643   0.012899  -0.049763  -0.000199  -0.000284   0.011182
     7  C    5.078483   0.440157   0.011130   0.003222   0.000109  -0.000826
     8  C    0.440157   5.044167   0.442853  -0.056835   0.000419   0.019831
     9  C    0.011130   0.442853   4.789088   0.270985  -0.111082  -0.043293
    10  O    0.003222  -0.056835   0.270985   8.034429   0.314591  -0.066173
    11  C    0.000109   0.000419  -0.111082   0.314591   4.834895   0.470902
    12  C   -0.000826   0.019831  -0.043293  -0.066173   0.470902   5.176808
    13  C   -0.060910  -0.040956   0.428947  -0.048877   0.012294   0.373818
    14  C   -0.004044  -0.079244  -0.001944   0.008419   0.014973  -0.119092
    15  O    0.005117  -0.000194   0.002786  -0.000011   0.000089  -0.000584
    16  C    0.001542  -0.000055   0.000105   0.000000   0.000002  -0.000166
    17  O    0.000006   0.000000   0.000001   0.000000   0.000000  -0.000006
    18  H    0.000000   0.000000   0.000000   0.000000   0.000000   0.000000
    19  H    0.000000   0.000000   0.000000   0.000000   0.000000   0.000000
    20  H    0.000000   0.000000   0.000000   0.000000   0.000000   0.000000
    21  H   -0.010536   0.000225  -0.000003   0.000000   0.000000   0.000002
    22  H    0.361865  -0.042776   0.003900  -0.000057   0.000001   0.000015
    23  H   -0.036590   0.346079  -0.031957  -0.001524   0.000066  -0.000389
    24  H    0.000004  -0.000301   0.004259  -0.038221   0.379215  -0.040471
    25  H   -0.000002  -0.000241   0.007271   0.003269  -0.046998   0.364258
             13         14         15         16         17         18
     1  C    0.000000  -0.000001  -0.000129  -0.005301  -0.007949   0.339205
     2  C    0.000015   0.001071   0.001784  -0.027284  -0.003041  -0.018226
     3  O    0.000000  -0.000008  -0.000009   0.001423   0.000013   0.005279
     4  C    0.001037  -0.015869  -0.075932   0.298458  -0.091498   0.005786
     5  C    0.009993  -0.052805  -0.024564  -0.035270   0.004653  -0.000115
     6  C   -0.012870   0.337221  -0.041152  -0.022228   0.000807   0.000002
     7  C   -0.060910  -0.004044   0.005117   0.001542   0.000006   0.000000
     8  C   -0.040956  -0.079244  -0.000194  -0.000055   0.000000   0.000000
     9  C    0.428947  -0.001944   0.002786   0.000105   0.000001   0.000000
    10  O   -0.048877   0.008419  -0.000011   0.000000   0.000000   0.000000
    11  C    0.012294   0.014973   0.000089   0.000002   0.000000   0.000000
    12  C    0.373818  -0.119092  -0.000584  -0.000166  -0.000006   0.000000
    13  C    4.987909   0.276187  -0.066413  -0.001463  -0.000172   0.000000
    14  C    0.276187   5.244993   0.226427  -0.012504  -0.001020   0.000000
    15  O   -0.066413   0.226427   8.317702   0.209707  -0.065395   0.000001
    16  C   -0.001463  -0.012504   0.209707   4.505428   0.554430   0.000267
    17  O   -0.000172  -0.001020  -0.065395   0.554430   8.036191   0.000399
    18  H    0.000000   0.000000   0.000001   0.000267   0.000399   0.603889
    19  H    0.000000  -0.000003   0.000004   0.000307  -0.000101  -0.026052
    20  H    0.000000   0.000002   0.000111   0.001509   0.016122  -0.022678
    21  H   -0.000098   0.005304  -0.000304   0.003642  -0.000084  -0.000038
    22  H    0.000635   0.005625  -0.000046  -0.000031   0.000000   0.000000
    23  H    0.006101   0.001041   0.000002   0.000000   0.000000   0.000000
    24  H    0.002157  -0.000131   0.000000   0.000000   0.000000   0.000000
    25  H   -0.024400  -0.006459   0.001479   0.000031   0.000002   0.000000
             19         20         21         22         23         24
     1  C    0.354205   0.347015   0.001173   0.000000   0.000000   0.000000
     2  C   -0.021982  -0.012117  -0.004598  -0.000001   0.000000   0.000000
     3  O    0.001478   0.002040   0.011509   0.000000   0.000000   0.000000
     4  C    0.005221  -0.001119  -0.052104   0.000397   0.000003   0.000000
     5  C   -0.001039   0.000147   0.359271  -0.011162  -0.000156   0.000000
     6  C   -0.000024   0.000005  -0.041866  -0.041236   0.003464   0.000004
     7  C    0.000000   0.000000  -0.010536   0.361865  -0.036590   0.000004
     8  C    0.000000   0.000000   0.000225  -0.042776   0.346079  -0.000301
     9  C    0.000000   0.000000  -0.000003   0.003900  -0.031957   0.004259
    10  O    0.000000   0.000000   0.000000  -0.000057  -0.001524  -0.038221
    11  C    0.000000   0.000000   0.000000   0.000001   0.000066   0.379215
    12  C    0.000000   0.000000   0.000002   0.000015  -0.000389  -0.040471
    13  C    0.000000   0.000000  -0.000098   0.000635   0.006101   0.002157
    14  C   -0.000003   0.000002   0.005304   0.005625   0.001041  -0.000131
    15  O    0.000004   0.000111  -0.000304  -0.000046   0.000002   0.000000
    16  C    0.000307   0.001509   0.003642  -0.000031   0.000000   0.000000
    17  O   -0.000101   0.016122  -0.000084   0.000000   0.000000   0.000000
    18  H   -0.026052  -0.022678  -0.000038   0.000000   0.000000   0.000000
    19  H    0.596042  -0.021134  -0.000122   0.000000   0.000000   0.000000
    20  H   -0.021134   0.536406  -0.000018   0.000000   0.000000   0.000000
    21  H   -0.000122  -0.000018   0.624275   0.005727  -0.000006   0.000000
    22  H    0.000000   0.000000   0.005727   0.648341  -0.006419   0.000000
    23  H    0.000000   0.000000  -0.000006  -0.006419   0.640780  -0.000001
    24  H    0.000000   0.000000   0.000000   0.000000  -0.000001   0.589967
    25  H    0.000000   0.000000   0.000000   0.000000   0.000001   0.000055
             25
     1  C    0.000000
     2  C    0.000000
     3  O    0.000000
     4  C    0.000002
     5  C    0.000004
     6  C   -0.000098
     7  C   -0.000002
     8  C   -0.000241
     9  C    0.007271
    10  O    0.003269
    11  C   -0.046998
    12  C    0.364258
    13  C   -0.024400
    14  C   -0.006459
    15  O    0.001479
    16  C    0.000031
    17  O    0.000002
    18  H    0.000000
    19  H    0.000000
    20  H    0.000000
    21  H    0.000000
    22  H    0.000000
    23  H    0.000001
    24  H    0.000055
    25  H    0.610493
 Mulliken atomic charges:
              1
     1  C   -0.357521
     2  C    0.340798
     3  O   -0.417462
     4  C    0.014381
     5  C   -0.084058
     6  C    0.164030
     7  C   -0.154885
     8  C   -0.093895
     9  C    0.276681
    10  O   -0.423018
    11  C    0.130809
    12  C   -0.145758
    13  C    0.157065
    14  C    0.171862
    15  O   -0.490479
    16  C    0.527451
    17  O   -0.443358
    18  H    0.112280
    19  H    0.113199
    20  H    0.153709
    21  H    0.098648
    22  H    0.075220
    23  H    0.079503
    24  H    0.103464
    25  H    0.091333
 Sum of Mulliken atomic charges =   0.00000
 Mulliken charges with hydrogens summed into heavy atoms:
              1
     1  C    0.021667
     2  C    0.340798
     3  O   -0.417462
     4  C    0.014381
     5  C    0.014590
     6  C    0.164030
     7  C   -0.079665
     8  C   -0.014392
     9  C    0.276681
    10  O   -0.423018
    11  C    0.234273
    12  C   -0.054424
    13  C    0.157065
    14  C    0.171862
    15  O   -0.490479
    16  C    0.527451
    17  O   -0.443358
 Sum of Mulliken charges with hydrogens summed into heavy atoms =   0.00000
 Electronic spatial extent (au):  <R**2>=           4434.2227
 Charge=              0.0000 electrons
 Dipole moment (field-independent basis, Debye):
    X=              4.4823    Y=              1.1807    Z=              1.5864  Tot=              4.8992
 Quadrupole moment (field-independent basis, Debye-Ang):
   XX=            -92.8004   YY=            -95.2220   ZZ=            -95.8482
   XY=             -2.2061   XZ=             -6.5094   YZ=              2.1199
 Traceless Quadrupole moment (field-independent basis, Debye-Ang):
   XX=              1.8232   YY=             -0.5985   ZZ=             -1.2246
   XY=             -2.2061   XZ=             -6.5094   YZ=              2.1199
 Octapole moment (field-independent basis, Debye-Ang**2):
  XXX=             69.9302  YYY=             17.9126  ZZZ=             -2.2852  XYY=             39.6303
  XXY=            -46.6469  XXZ=             22.1889  XZZ=             -7.9124  YZZ=             -6.0013
  YYZ=              4.0328  XYZ=             -5.7211
 Hexadecapole moment (field-independent basis, Debye-Ang**3):
 XXXX=          -4364.9474 YYYY=          -1001.9336 ZZZZ=           -139.6309 XXXY=             -6.4629
 XXXZ=            -91.7465 YYYX=            -21.9903 YYYZ=              5.6299 ZZZX=              6.5725
 ZZZY=             -2.1230 XXYY=           -943.2967 XXZZ=           -805.2014 YYZZ=           -206.8212
 XXYZ=             33.5745 YYXZ=            -11.2995 ZZXY=             10.3310
 N-N= 1.112114861098D+03 E-N=-4.091516683342D+03  KE= 7.938312356084D+02
 Calling FoFJK, ICntrl=      2527 FMM=F ISym2X=0 I1Cent= 0 IOpClX= 0 NMat=1 NMatS=1 NMatT=0.
 ***** Axes restored to original set *****
 -------------------------------------------------------------------
 Center     Atomic                   Forces (Hartrees/Bohr)
 Number     Number              X              Y              Z
 -------------------------------------------------------------------
      1        6          -0.005632050   -0.012150678   -0.002272823
      2        6          -0.010055773   -0.010617941   -0.001616243
      3        8           0.006461608    0.000429334   -0.002900102
      4        6          -0.008602493   -0.002666304    0.006346080
      5        6           0.026844095    0.020453577    0.004267637
      6        6          -0.011930728   -0.014623755   -0.009602060
      7        6           0.022699525    0.015590922   -0.004906237
      8        6           0.001329813   -0.004945175   -0.008982977
      9        6           0.011554882   -0.001867814   -0.017859233
     10        8           0.021844878    0.009461014   -0.012637602
     11        6          -0.018666386   -0.007540464    0.011898324
     12        6          -0.000546804    0.012775797    0.020062912
     13        6          -0.019356133   -0.011718296    0.005715567
     14        6          -0.021356648   -0.011977572    0.008200671
     15        8           0.016366905    0.016539793    0.006184793
     16        6          -0.011865088   -0.017140616   -0.013328714
     17        8           0.005884643    0.011963968    0.011700956
     18        1           0.002072211   -0.001889817   -0.004838461
     19        1          -0.003900971    0.007009263    0.001118590
     20        1          -0.001210716    0.007061886    0.005717645
     21        1          -0.000583085   -0.003347372   -0.002523147
     22        1          -0.001289084   -0.002468504   -0.002403564
     23        1           0.004084392    0.001909543   -0.002154251
     24        1          -0.000758379    0.001061140    0.002741126
     25        1          -0.003388614   -0.001301929    0.002071115
 -------------------------------------------------------------------
 Cartesian Forces:  Max     0.026844095 RMS     0.010548283

 GradGradGradGradGradGradGradGradGradGradGradGradGradGradGradGradGradGrad
 Berny optimization.
 Internal  Forces:  Max     0.030362180 RMS     0.007111039
 Search for a local minimum.
 Step number   1 out of a maximum of  143
 All quantities printed in internal units (Hartrees-Bohrs-Radians)
 Mixed Optimization -- RFO/linear search
 Second derivative matrix not updated -- first step.
 ITU=  0
     Eigenvalues ---    0.00632   0.00724   0.00841   0.01295   0.01417
     Eigenvalues ---    0.01581   0.01772   0.01787   0.01906   0.01956
     Eigenvalues ---    0.02025   0.02051   0.02081   0.02110   0.02116
     Eigenvalues ---    0.02149   0.02169   0.02257   0.02317   0.02350
     Eigenvalues ---    0.07108   0.07469   0.15996   0.16000   0.16000
     Eigenvalues ---    0.16000   0.16000   0.16000   0.16000   0.16000
     Eigenvalues ---    0.22539   0.22748   0.23502   0.24499   0.24800
     Eigenvalues ---    0.24965   0.24996   0.24997   0.24998   0.24999
     Eigenvalues ---    0.25000   0.25000   0.31337   0.32983   0.34205
     Eigenvalues ---    0.34238   0.34461   0.34854   0.35017   0.35046
     Eigenvalues ---    0.35601   0.35727   0.35874   0.36428   0.39044
     Eigenvalues ---    0.39767   0.40556   0.41874   0.43418   0.44907
     Eigenvalues ---    0.45381   0.45847   0.46432   0.47755   0.50839
     Eigenvalues ---    0.52325   0.55185   0.90099   0.92033
 RFO step:  Lambda=-1.82224257D-02 EMin= 6.31851460D-03
 Linear search not attempted -- first point.
 Iteration  1 RMS(Cart)=  0.05861640 RMS(Int)=  0.00127943
 Iteration  2 RMS(Cart)=  0.00165230 RMS(Int)=  0.00010279
 Iteration  3 RMS(Cart)=  0.00000131 RMS(Int)=  0.00010278
 Iteration  4 RMS(Cart)=  0.00000000 RMS(Int)=  0.00010278
 Variable       Old X    -DE/DX   Delta X   Delta X   Delta X     New X
                                 (Linear)    (Quad)   (Total)
    R1        2.85375   0.00867   0.00000   0.02614   0.02614   2.87989
    R2        2.06930   0.00320   0.00000   0.00887   0.00887   2.07817
    R3        2.06559   0.00642   0.00000   0.01768   0.01768   2.08327
    R4        2.05913   0.00547   0.00000   0.01492   0.01492   2.07406
    R5        2.32887   0.00445   0.00000   0.00484   0.00484   2.33372
    R6        2.82381   0.01565   0.00000   0.04498   0.04498   2.86878
    R7        2.53683   0.03036   0.00000   0.05383   0.05382   2.59065
    R8        2.78689   0.00638   0.00000   0.01939   0.01933   2.80623
    R9        2.75413  -0.00563   0.00000  -0.01350  -0.01345   2.74069
   R10        2.05600   0.00320   0.00000   0.00867   0.00867   2.06467
   R11        2.64164   0.02657   0.00000   0.05529   0.05530   2.69695
   R12        2.65023   0.01040   0.00000   0.01957   0.01964   2.66987
   R13        2.64358  -0.00027   0.00000   0.00000   0.00001   2.64359
   R14        2.05647   0.00264   0.00000   0.00718   0.00718   2.06365
   R15        2.63159   0.01125   0.00000   0.02395   0.02395   2.65554
   R16        2.04710   0.00500   0.00000   0.01335   0.01335   2.06046
   R17        2.56959   0.01302   0.00000   0.02582   0.02595   2.59554
   R18        2.62963   0.02630   0.00000   0.05592   0.05593   2.68556
   R19        2.56473   0.02816   0.00000   0.05063   0.05068   2.61542
   R20        2.60444  -0.00448   0.00000  -0.01108  -0.01117   2.59328
   R21        2.04510   0.00219   0.00000   0.00584   0.00584   2.05094
   R22        2.69298   0.01556   0.00000   0.03431   0.03419   2.72717
   R23        2.04279   0.00389   0.00000   0.01032   0.01032   2.05311
   R24        2.66745  -0.00296   0.00000  -0.00709  -0.00710   2.66035
   R25        2.67805  -0.01873   0.00000  -0.04437  -0.04436   2.63369
   R26        2.63343   0.00578   0.00000   0.01114   0.01110   2.64453
   R27        2.32010  -0.00369   0.00000  -0.00393  -0.00393   2.31617
    A1        1.90873  -0.00309   0.00000  -0.00780  -0.00780   1.90093
    A2        1.91673   0.00197   0.00000   0.00319   0.00303   1.91976
    A3        1.95051  -0.00148   0.00000  -0.01020  -0.01035   1.94016
    A4        1.89211   0.00129   0.00000   0.01076   0.01076   1.90287
    A5        1.86445   0.00579   0.00000   0.04757   0.04757   1.91202
    A6        1.92968  -0.00434   0.00000  -0.04161  -0.04190   1.88778
    A7        2.10981   0.00381   0.00000   0.01368   0.01346   2.12326
    A8        2.07402   0.00384   0.00000   0.01375   0.01356   2.08758
    A9        2.09785  -0.00770   0.00000  -0.02932  -0.02948   2.06838
   A10        2.04658   0.00447   0.00000   0.01307   0.01313   2.05971
   A11        2.12578   0.00168   0.00000   0.00267   0.00272   2.12850
   A12        2.11071  -0.00615   0.00000  -0.01583  -0.01596   2.09475
   A13        2.10602   0.00294   0.00000   0.01862   0.01857   2.12460
   A14        2.12427  -0.00421   0.00000  -0.02457  -0.02459   2.09968
   A15        2.05267   0.00128   0.00000   0.00625   0.00622   2.05889
   A16        2.10136   0.00919   0.00000   0.03635   0.03631   2.13767
   A17        2.08688  -0.00954   0.00000  -0.03640  -0.03635   2.05053
   A18        2.09483   0.00035   0.00000   0.00007   0.00006   2.09489
   A19        2.11646   0.00069   0.00000   0.00334   0.00337   2.11982
   A20        2.09977  -0.00297   0.00000  -0.01641  -0.01642   2.08335
   A21        2.06694   0.00228   0.00000   0.01307   0.01306   2.08000
   A22        2.04049  -0.00344   0.00000  -0.01153  -0.01152   2.02897
   A23        2.12709   0.00180   0.00000   0.00620   0.00619   2.13328
   A24        2.11559   0.00165   0.00000   0.00535   0.00534   2.12093
   A25        2.18092   0.00440   0.00000   0.01229   0.01223   2.19316
   A26        2.16963   0.00348   0.00000   0.01187   0.01180   2.18143
   A27        1.93263  -0.00788   0.00000  -0.02416  -0.02404   1.90859
   A28        1.86656  -0.00327   0.00000  -0.00757  -0.00734   1.85922
   A29        1.92933   0.00857   0.00000   0.03063   0.03058   1.95991
   A30        2.01156  -0.00214   0.00000  -0.00327  -0.00325   2.00831
   A31        2.34230  -0.00643   0.00000  -0.02736  -0.02733   2.31496
   A32        1.86073  -0.00372   0.00000  -0.02309  -0.02331   1.83742
   A33        2.18744   0.00342   0.00000   0.02029   0.02040   2.20784
   A34        2.23502   0.00030   0.00000   0.00280   0.00290   2.23793
   A35        1.83553   0.00630   0.00000   0.02420   0.02410   1.85963
   A36        2.04718  -0.00194   0.00000  -0.00802  -0.00798   2.03920
   A37        2.40047  -0.00435   0.00000  -0.01618  -0.01612   2.38435
   A38        2.09777   0.00087   0.00000   0.00429   0.00427   2.10204
   A39        2.07622   0.01275   0.00000   0.04137   0.04140   2.11763
   A40        2.10919  -0.01362   0.00000  -0.04566  -0.04568   2.06351
   A41        2.13678   0.00194   0.00000  -0.00138  -0.00150   2.13528
   A42        2.04941  -0.00191   0.00000  -0.00577  -0.00593   2.04348
   A43        2.12730   0.02106   0.00000   0.07784   0.07792   2.20522
   A44        2.10640  -0.01915   0.00000  -0.07212  -0.07204   2.03436
    D1        0.07387  -0.00080   0.00000  -0.00245  -0.00227   0.07160
    D2       -3.12659  -0.00190   0.00000  -0.04028  -0.04045   3.11614
    D3       -2.00042  -0.00169   0.00000  -0.01277  -0.01248  -2.01289
    D4        1.08231  -0.00279   0.00000  -0.05060  -0.05066   1.03165
    D5        2.13461   0.00349   0.00000   0.04522   0.04527   2.17989
    D6       -1.06585   0.00238   0.00000   0.00738   0.00710  -1.05875
    D7       -2.40898  -0.00149   0.00000  -0.04824  -0.04853  -2.45751
    D8        0.74829  -0.00115   0.00000  -0.04119  -0.04146   0.70683
    D9        0.67415  -0.00219   0.00000  -0.08434  -0.08407   0.59008
   D10       -2.45176  -0.00185   0.00000  -0.07728  -0.07700  -2.52876
   D11       -3.10487  -0.00090   0.00000  -0.02354  -0.02362  -3.12849
   D12        0.01349  -0.00037   0.00000  -0.00775  -0.00788   0.00561
   D13        0.02119  -0.00117   0.00000  -0.03036  -0.03038  -0.00919
   D14        3.13954  -0.00064   0.00000  -0.01457  -0.01464   3.12491
   D15        3.10666   0.00053   0.00000   0.01303   0.01285   3.11951
   D16       -0.02187   0.00067   0.00000   0.01738   0.01737  -0.00450
   D17       -0.01868   0.00079   0.00000   0.02008   0.01980   0.00111
   D18        3.13597   0.00093   0.00000   0.02442   0.02432  -3.12289
   D19        3.12301   0.00060   0.00000   0.01982   0.01996  -3.14021
   D20       -0.00231   0.00058   0.00000   0.01816   0.01829   0.01599
   D21        0.00372   0.00016   0.00000   0.00507   0.00498   0.00870
   D22       -3.12159   0.00014   0.00000   0.00342   0.00331  -3.11828
   D23       -3.12360   0.00007   0.00000  -0.00108  -0.00113  -3.12473
   D24        0.01153   0.00009   0.00000  -0.00017  -0.00021   0.01131
   D25        0.00164  -0.00001   0.00000   0.00024   0.00026   0.00190
   D26        3.13676   0.00002   0.00000   0.00116   0.00117   3.13794
   D27        3.12145   0.00017   0.00000   0.00386   0.00386   3.12531
   D28       -0.01873   0.00011   0.00000   0.00368   0.00373  -0.01500
   D29       -0.00392   0.00007   0.00000   0.00186   0.00188  -0.00204
   D30        3.13908   0.00001   0.00000   0.00168   0.00174   3.14082
   D31        0.00102  -0.00006   0.00000  -0.00195  -0.00194  -0.00092
   D32        3.13810  -0.00001   0.00000  -0.00006  -0.00006   3.13804
   D33       -3.13422  -0.00006   0.00000  -0.00274  -0.00275  -3.13697
   D34        0.00286  -0.00001   0.00000  -0.00085  -0.00087   0.00200
   D35        3.14030   0.00000   0.00000   0.00020   0.00018   3.14048
   D36       -0.00150   0.00005   0.00000   0.00162   0.00163   0.00012
   D37        0.00319  -0.00006   0.00000  -0.00168  -0.00169   0.00150
   D38       -3.13862   0.00000   0.00000  -0.00025  -0.00024  -3.13886
   D39       -3.14044   0.00001   0.00000   0.00051   0.00052  -3.13993
   D40        0.00134  -0.00003   0.00000  -0.00075  -0.00074   0.00060
   D41        3.13921   0.00005   0.00000   0.00109   0.00109   3.14030
   D42       -0.00069   0.00002   0.00000   0.00042   0.00041  -0.00028
   D43       -0.00256   0.00010   0.00000   0.00234   0.00233  -0.00023
   D44        3.14072   0.00006   0.00000   0.00167   0.00166  -3.14081
   D45        0.00052  -0.00005   0.00000  -0.00128  -0.00130  -0.00078
   D46       -3.14141  -0.00002   0.00000  -0.00042  -0.00042   3.14135
   D47       -0.00210   0.00011   0.00000   0.00273   0.00272   0.00062
   D48        3.13921   0.00005   0.00000   0.00118   0.00116   3.14037
   D49        3.13993   0.00007   0.00000   0.00163   0.00163   3.14156
   D50       -0.00195   0.00000   0.00000   0.00008   0.00007  -0.00187
   D51        0.00277  -0.00012   0.00000  -0.00301  -0.00300  -0.00023
   D52       -3.14105  -0.00007   0.00000  -0.00210  -0.00209   3.14005
   D53       -3.13853  -0.00006   0.00000  -0.00140  -0.00141  -3.13994
   D54        0.00084  -0.00001   0.00000  -0.00049  -0.00050   0.00034
   D55        0.00341  -0.00008   0.00000  -0.00218  -0.00217   0.00123
   D56       -3.13962   0.00000   0.00000  -0.00192  -0.00198   3.14159
   D57       -3.13577  -0.00014   0.00000  -0.00319  -0.00317  -3.13894
   D58        0.00439  -0.00006   0.00000  -0.00293  -0.00297   0.00141
   D59        0.02125  -0.00040   0.00000  -0.01363  -0.01368   0.00757
   D60       -3.11892  -0.00048   0.00000  -0.01386  -0.01385  -3.13278
   D61       -0.00295   0.00020   0.00000   0.00304   0.00273  -0.00022
   D62        3.12574   0.00038   0.00000  -0.00008  -0.00020   3.12554
         Item               Value     Threshold  Converged?
 Maximum Force            0.030362     0.000450     NO 
 RMS     Force            0.007111     0.000300     NO 
 Maximum Displacement     0.195969     0.001800     NO 
 RMS     Displacement     0.058938     0.001200     NO 
 Predicted change in Energy=-9.827423D-03
 GradGradGradGradGradGradGradGradGradGradGradGradGradGradGradGradGradGrad

                          Input orientation:                          
 ---------------------------------------------------------------------
 Center     Atomic      Atomic             Coordinates (Angstroms)
 Number     Number       Type             X           Y           Z
 ---------------------------------------------------------------------
      1          6           0        0.927441   -0.084633   -0.049219
      2          6           0        2.451189   -0.070715   -0.071386
      3          8           0        3.097385   -0.895015   -0.725652
      4          6           0        3.201204    1.052037    0.622530
      5          6           0        4.321526    1.552239    0.010916
      6          6           0        5.107956    2.613525    0.609742
      7          6           0        6.275682    3.147179   -0.013492
      8          6           0        7.029824    4.157449    0.592827
      9          6           0        6.571018    4.611482    1.841061
     10          8           0        7.160772    5.590111    2.603279
     11          6           0        6.389102    5.718403    3.745020
     12          6           0        5.319552    4.858604    3.749841
     13          6           0        5.417726    4.122655    2.512328
     14          6           0        4.688891    3.106497    1.865713
     15          8           0        3.552465    2.605743    2.498283
     16          6           0        2.770689    1.589012    1.938399
     17          8           0        1.804198    1.216879    2.593886
     18          1           0        0.570491   -0.953042   -0.621792
     19          1           0        0.535308    0.836291   -0.511238
     20          1           0        0.546606   -0.140668    0.978606
     21          1           0        4.651275    1.149828   -0.949841
     22          1           0        6.591773    2.755784   -0.982741
     23          1           0        7.925637    4.571921    0.129592
     24          1           0        6.735788    6.464457    4.452911
     25          1           0        4.569276    4.764827    4.530026
 ---------------------------------------------------------------------
                    Distance matrix (angstroms):
                    1          2          3          4          5
     1  C    0.000000
     2  C    1.523973   0.000000
     3  O    2.413076   1.234951   0.000000
     4  C    2.629308   1.518095   2.370523   0.000000
     5  C    3.768657   2.477683   2.833744   1.370910   0.000000
     6  C    5.019063   3.837642   4.258582   2.464571   1.450308
     7  C    6.248966   4.998494   5.191154   3.774462   2.522530
     8  C    7.459662   6.267571   6.536807   4.929787   3.802712
     9  C    7.581333   6.523298   6.998260   5.050754   4.215284
    10  O    8.837018   7.834473   8.345643   6.340005   5.575489
    11  C    8.826167   7.974083   8.634790   6.456595   5.964506
    12  C    7.626210   6.864945   7.620511   5.362595   5.089957
    13  C    6.665242   5.749806   6.406676   4.232375   3.750434
    14  C    5.291387   4.342159   5.025949   2.824805   2.447642
    15  O    4.540775   3.870328   4.780812   2.460862   2.808616
    16  C    3.185793   2.626026   3.657087   1.484991   2.474195
    17  O    3.073864   3.029879   4.141468   2.421785   3.622312
    18  H    1.099722   2.149063   2.529693   3.534025   4.554889
    19  H    1.102420   2.164886   3.099618   2.904992   3.888531
    20  H    1.097543   2.175962   3.159115   2.931932   4.248810
    21  H    4.025165   2.664919   2.578026   2.141173   1.092577
    22  H    6.405005   5.095499   5.060156   4.120147   2.754977
    23  H    8.407747   7.180811   7.343762   5.912093   4.703422
    24  H    9.843610   9.029703   9.706561   7.513947   7.049105
    25  H    7.599324   7.002982   7.862724   5.561022   5.550177
                    6          7          8          9         10
     6  C    0.000000
     7  C    1.427162   0.000000
     8  C    2.465271   1.398927   0.000000
     9  C    2.765597   2.381338   1.405253   0.000000
    10  O    4.128960   3.687654   2.472162   1.373500   0.000000
    11  C    4.594733   4.555268   3.575391   2.209848   1.384018
    12  C    3.865924   4.243328   3.658331   2.295796   2.289061
    13  C    2.448114   2.840318   2.506901   1.421138   2.280331
    14  C    1.412834   2.459872   2.864386   2.409977   3.580857
    15  O    2.446671   3.744073   4.258002   3.683285   4.683733
    16  C    2.877111   4.303805   5.152442   4.856675   5.976929
    17  O    4.099057   5.524369   6.321262   5.900225   6.915066
    18  H    5.901328   7.052025   8.325587   8.546105   9.830857
    19  H    5.032322   6.208047   7.377519   7.497678   8.729021
    20  H    5.341120   6.679560   7.788116   7.721419   8.901045
    21  H    2.187068   2.739500   4.133171   4.843304   6.215976
    22  H    2.181274   1.092038   2.153826   3.379039   4.606160
    23  H    3.464850   2.184654   1.090346   2.183045   2.782240
    24  H    5.678861   5.582543   4.506550   3.206623   2.089553
    25  H    4.504098   5.115873   4.682386   3.355744   3.333061
                   11         12         13         14         15
    11  C    0.000000
    12  C    1.372303   0.000000
    13  C    2.238195   1.443156   0.000000
    14  C    3.639308   2.649066   1.407795   0.000000
    15  O    4.391983   3.124800   2.404250   1.393687   0.000000
    16  C    5.780022   4.524185   3.708846   2.446945   1.399423
    17  O    6.527647   5.191927   4.637647   3.524535   2.234843
    18  H    9.870839   8.685620   7.686423   6.295138   5.593925
    19  H    8.730273   7.564707   6.616656   5.296790   4.614262
    20  H    8.724479   7.446709   6.652521   5.337562   4.345962
    21  H    6.777437   6.024004   4.627284   3.428894   3.900851
    22  H    5.583002   5.332704   3.932204   3.443494   4.623574
    23  H    4.092271   4.469907   3.488393   3.954505   5.348008
    24  H    1.085310   2.253619   3.314694   4.707364   5.370642
    25  H    2.199387   1.086460   2.281087   3.140530   3.134251
                   16         17         18         19         20
    16  C    0.000000
    17  O    1.225664   0.000000
    18  H    4.225813   4.070771   0.000000
    19  H    3.400624   3.375904   1.793091   0.000000
    20  H    2.976499   2.456339   1.794936   1.781633   0.000000
    21  H    3.474395   4.546246   4.602443   4.151128   4.715146
    22  H    4.949253   6.171011   7.081068   6.370835   6.984295
    23  H    6.224388   7.402774   9.229733   8.305574   8.796557
    24  H    6.768659   7.437314  10.898753   9.734731   9.695590
    25  H    4.476298   4.897167   8.673267   7.557820   7.270375
                   21         22         23         24         25
    21  H    0.000000
    22  H    2.519069   0.000000
    23  H    4.857709   2.512932   0.000000
    24  H    7.860039   6.581893   4.867086   0.000000
    25  H    6.565355   6.206235   5.537706   2.754716   0.000000
 Stoichiometry    C13H8O4
 Framework group  C1[X(C13H8O4)]
 Deg. of freedom    69
 Full point group                 C1      NOp   1
 Largest Abelian subgroup         C1      NOp   1
 Largest concise Abelian subgroup C1      NOp   1
                         Standard orientation:                         
 ---------------------------------------------------------------------
 Center     Atomic      Atomic             Coordinates (Angstroms)
 Number     Number       Type             X           Y           Z
 ---------------------------------------------------------------------
      1          6           0       -4.549378   -0.482390    0.688986
      2          6           0       -3.596286    0.420138   -0.085321
      3          8           0       -3.993411    1.434048   -0.667887
      4          6           0       -2.103748    0.145826   -0.044158
      5          6           0       -1.253431    1.219108    0.022341
      6          6           0        0.186811    1.050662    0.049252
      7          6           0        1.086529    2.156238    0.119979
      8          6           0        2.472998    1.970022    0.124662
      9          6           0        2.921745    0.640051    0.057265
     10          8           0        4.234921    0.237577    0.048188
     11          6           0        4.222632   -1.144252   -0.028652
     12          6           0        2.948399   -1.652129   -0.068736
     13          6           0        2.078676   -0.501795   -0.013845
     14          6           0        0.690475   -0.267744   -0.015751
     15          8           0       -0.163335   -1.367118   -0.084661
     16          6           0       -1.556232   -1.233312   -0.102517
     17          8           0       -2.205394   -2.269874   -0.182381
     18          1           0       -5.576466   -0.111623    0.558565
     19          1           0       -4.295233   -0.467036    1.761602
     20          1           0       -4.486064   -1.520109    0.337230
     21          1           0       -1.650896    2.236455    0.049736
     22          1           0        0.685527    3.170928    0.166360
     23          1           0        3.171737    2.805535    0.175037
     24          1           0        5.201546   -1.612608   -0.045007
     25          1           0        2.672471   -2.701142   -0.130623
 ---------------------------------------------------------------------
 Rotational constants (GHZ):      1.2218014      0.2766417      0.2292055
 Standard basis: 6-31G(d,p) (6D, 7F)
 There are   295 symmetry adapted basis functions of A   symmetry.
 Integral buffers will be    131072 words long.
 Raffenetti 2 integral format.
 Two-electron integral symmetry is turned on.
   295 basis functions,   532 primitive gaussians,   295 cartesian basis functions
    59 alpha electrons       59 beta electrons
       nuclear repulsion energy      1105.8320702124 Hartrees.
 NAtoms=   25 NActive=   25 NUniq=   25 SFac= 1.00D+00 NAtFMM=   60 NAOKFM=F Big=F
 One-electron integrals computed using PRISM.
 NBasis=   295 RedAO= T  NBF=   295
 NBsUse=   295 1.00D-06 NBFU=   295
 Initial guess read from the read-write file.
 B after Tr=     0.000000    0.000000    0.000000
         Rot=    1.000000    0.000000    0.000000    0.000000 Ang=   0.00 deg.
 Initial guess orbital symmetries:
       Occupied  (A) (A) (A) (A) (A) (A) (A) (A) (A) (A) (A) (A)
                 (A) (A) (A) (A) (A) (A) (A) (A) (A) (A) (A) (A)
                 (A) (A) (A) (A) (A) (A) (A) (A) (A) (A) (A) (A)
                 (A) (A) (A) (A) (A) (A) (A) (A) (A) (A) (A) (A)
                 (A) (A) (A) (A) (A) (A) (A) (A) (A) (A) (A)
       Virtual   (A) (A) (A) (A) (A) (A) (A) (A) (A) (A) (A) (A)
                 (A) (A) (A) (A) (A) (A) (A) (A) (A) (A) (A) (A)
                 (A) (A) (A) (A) (A) (A) (A) (A) (A) (A) (A) (A)
                 (A) (A) (A) (A) (A) (A) (A) (A) (A) (A) (A) (A)
                 (A) (A) (A) (A) (A) (A) (A) (A) (A) (A) (A) (A)
                 (A) (A) (A) (A) (A) (A) (A) (A) (A) (A) (A) (A)
                 (A) (A) (A) (A) (A) (A) (A) (A) (A) (A) (A) (A)
                 (A) (A) (A) (A) (A) (A) (A) (A) (A) (A) (A) (A)
                 (A) (A) (A) (A) (A) (A) (A) (A) (A) (A) (A) (A)
                 (A) (A) (A) (A) (A) (A) (A) (A) (A) (A) (A) (A)
                 (A) (A) (A) (A) (A) (A) (A) (A) (A) (A) (A) (A)
                 (A) (A) (A) (A) (A) (A) (A) (A) (A) (A) (A) (A)
                 (A) (A) (A) (A) (A) (A) (A) (A) (A) (A) (A) (A)
                 (A) (A) (A) (A) (A) (A) (A) (A) (A) (A) (A) (A)
                 (A) (A) (A) (A) (A) (A) (A) (A) (A) (A) (A) (A)
                 (A) (A) (A) (A) (A) (A) (A) (A) (A) (A) (A) (A)
                 (A) (A) (A) (A) (A) (A) (A) (A) (A) (A) (A) (A)
                 (A) (A) (A) (A) (A) (A) (A) (A) (A) (A) (A) (A)
                 (A) (A) (A) (A) (A) (A) (A) (A) (A) (A) (A) (A)
                 (A) (A) (A) (A) (A) (A) (A) (A)
 Harris functional with IExCor=  402 diagonalized for initial guess.
 ExpMin= 1.61D-01 ExpMax= 5.48D+03 ExpMxC= 8.25D+02 IAcc=1 IRadAn=         1 AccDes= 0.00D+00
 HarFok:  IExCor=  402 AccDes= 0.00D+00 IRadAn=         1 IDoV= 1
 ScaDFX=  1.000000  1.000000  1.000000  1.000000
 FoFCou: FMM=F IPFlag=           0 FMFlag=      100000 FMFlg1=           0
         NFxFlg=           0 DoJE=T BraDBF=F KetDBF=T FulRan=T
         Omega=  0.000000  0.000000  1.000000  0.000000  0.000000 ICntrl=     500 IOpCl=  0
         NMat0=    1 NMatS0=    1 NMatT0=    0 NMatD0=    1 NMtDS0=    0 NMtDT0=    0
         I1Cent=           4 NGrid=           0.
 Petite list used in FoFCou.
 Requested convergence on RMS density matrix=1.00D-08 within 128 cycles.
 Requested convergence on MAX density matrix=1.00D-06.
 Requested convergence on             energy=1.00D-06.
 No special actions if energy rises.
 Keep J ints in memory in canonical form, NReq=966583335.
 Integral accuracy reduced to 1.0D-05 until final iterations.
 Initial convergence to 1.0D-05 achieved.  Increase integral accuracy.
 SCF Done:  E(RB-LYP) =  -800.866234451     A.U. after   14 cycles
             Convg  =    0.8131D-08             -V/T =  2.0095
 Calling FoFJK, ICntrl=      2527 FMM=F ISym2X=0 I1Cent= 0 IOpClX= 0 NMat=1 NMatS=1 NMatT=0.
 ***** Axes restored to original set *****
 -------------------------------------------------------------------
 Center     Atomic                   Forces (Hartrees/Bohr)
 Number     Number              X              Y              Z
 -------------------------------------------------------------------
      1        6          -0.000330046   -0.005569788    0.000802500
      2        6           0.000008661   -0.000099299   -0.003736510
      3        8          -0.000635049    0.000978615   -0.000128044
      4        6          -0.002589680    0.001637572    0.004076076
      5        6           0.008383767    0.007253457    0.005403918
      6        6          -0.002881407   -0.006969081   -0.006952185
      7        6           0.004611600    0.004768300    0.001306188
      8        6          -0.002140974   -0.002197748   -0.000747340
      9        6          -0.002222414   -0.001575249    0.000320104
     10        8           0.005899200    0.003316287   -0.002113025
     11        6          -0.006314197   -0.001925043    0.004667724
     12        6           0.004166761    0.003994898    0.001037040
     13        6          -0.000142988   -0.001667325   -0.002989581
     14        6          -0.010465052   -0.003894867    0.006827228
     15        8           0.015652915    0.011483040   -0.000905804
     16        6          -0.010548424   -0.011571873   -0.007536889
     17        8           0.001183393    0.000640251   -0.001083586
     18        1           0.001385111    0.000838606   -0.000486814
     19        1          -0.000196731    0.001405608    0.001606577
     20        1           0.000105125    0.002873043    0.001654804
     21        1          -0.001724289   -0.002259743   -0.000190036
     22        1          -0.001379338   -0.001133667   -0.000081151
     23        1          -0.000066674    0.000139791    0.000246943
     24        1           0.000341843    0.000236532   -0.000015220
     25        1          -0.000101113   -0.000702316   -0.000982917
 -------------------------------------------------------------------
 Cartesian Forces:  Max     0.015652915 RMS     0.004383079

 GradGradGradGradGradGradGradGradGradGradGradGradGradGradGradGradGradGrad
 Berny optimization.
 Using GEDIIS/GDIIS optimizer.
 Internal  Forces:  Max     0.011176706 RMS     0.002002302
 Search for a local minimum.
 Step number   2 out of a maximum of  143
 All quantities printed in internal units (Hartrees-Bohrs-Radians)
 Mixed Optimization -- RFO/linear search
 Update second derivatives using D2CorX and points    1    2
 DE= -1.02D-02 DEPred=-9.83D-03 R= 1.03D+00
 SS=  1.41D+00  RLast= 2.81D-01 DXNew= 5.0454D-01 8.4300D-01
 Trust test= 1.03D+00 RLast= 2.81D-01 DXMaxT set to 5.05D-01
 ITU=  1  0
 Use linear search instead of GDIIS.
     Eigenvalues ---    0.00632   0.00747   0.00808   0.01273   0.01420
     Eigenvalues ---    0.01581   0.01771   0.01785   0.01908   0.01958
     Eigenvalues ---    0.02026   0.02051   0.02084   0.02110   0.02117
     Eigenvalues ---    0.02149   0.02170   0.02258   0.02314   0.02349
     Eigenvalues ---    0.07097   0.07452   0.15435   0.16000   0.16000
     Eigenvalues ---    0.16000   0.16000   0.16000   0.16000   0.16057
     Eigenvalues ---    0.22541   0.22767   0.22936   0.23862   0.24581
     Eigenvalues ---    0.24816   0.24916   0.24994   0.24999   0.25000
     Eigenvalues ---    0.25000   0.27155   0.31454   0.32948   0.34235
     Eigenvalues ---    0.34337   0.34651   0.34781   0.35008   0.35034
     Eigenvalues ---    0.35551   0.35715   0.35857   0.36688   0.38984
     Eigenvalues ---    0.39486   0.39898   0.40867   0.43309   0.44375
     Eigenvalues ---    0.45278   0.45838   0.47139   0.48457   0.51274
     Eigenvalues ---    0.52803   0.55879   0.90183   0.91992
 RFO step:  Lambda=-4.53461820D-03 EMin= 6.32409073D-03
 Quartic linear search produced a step of  0.15354.
 Iteration  1 RMS(Cart)=  0.10004852 RMS(Int)=  0.01088976
 Iteration  2 RMS(Cart)=  0.02728993 RMS(Int)=  0.00052997
 Iteration  3 RMS(Cart)=  0.00076044 RMS(Int)=  0.00033290
 Iteration  4 RMS(Cart)=  0.00000061 RMS(Int)=  0.00033290
 Variable       Old X    -DE/DX   Delta X   Delta X   Delta X     New X
                                 (Linear)    (Quad)   (Total)
    R1        2.87989  -0.00090   0.00401  -0.00203   0.00199   2.88188
[...]
 53433,0.09286389,-0.00232839,-0.00189199,-0.00253719,0.00324811,0.0047
 2620,0.00336427,-0.00099683,-0.00146214,-0.00156296,0.04544608,0.00103
 408,-0.02077568,-0.00626708,-0.01014924,-0.00450391,0.00111192,0.00324
 432,0.00375951,-0.00202579,-0.00047081,0.00078723,0.00036054,0.0012217
 8,0.00151176,0.00043607,-0.00079807,-0.00202623,0.00039367,0.00115840,
 0.00125857,0.00029170,0.00003200,-0.00021302,0.00027177,0.00008779,0.0
 0005334,-0.00093956,-0.00116834,-0.00058419,0.00456393,-0.00231175,-0.
 00199532,-0.00879548,0.00555106,0.02571519,0.26501176,0.04534158,-0.23
 985252,-0.30046157,-0.04233651,0.24073473,-0.07548168,-0.05797426,-0.0
 5613860,-0.01255938,-0.02290317,-0.02134227,0.00370069,0.00285291,-0.0
 0057941,-0.00348525,-0.00093475,0.00364704,-0.00026466,-0.00102187,-0.
 00100353,-0.00048270,-0.00000603,0.00017393,0.00002354,-0.00006250,-0.
 00014739,-0.00003724,-0.00004810,-0.00001023,0.00002963,0.00005084,0.0
 0004927,-0.00002761,-0.00006356,-0.00007364,-0.00002637,-0.00001014,0.
 00001015,-0.00000885,0.00000133,0.00000901,0.00000889,-0.00002844,0.00
 000867,-0.00004205,0.00009731,0.00015320,0.00026839,0.00020892,-0.0002
 1270,-0.00102843,0.00015793,0.00110023,0.00132948,0.00029202,0.0002340
 7,0.08135418,-0.06061933,-0.17007187,-0.11403380,-0.00391226,-0.009633
 02,-0.00847720,0.00278533,0.00129317,0.00111484,-0.00208218,0.00116126
 ,0.00074128,0.00006850,-0.00014185,-0.00052894,-0.00014813,-0.00021637
 ,0.00022334,0.00008144,-0.00003965,-0.00006839,-0.00005006,-0.00003030
 ,-0.00003199,0.00003923,0.00005466,0.00003214,-0.00004298,-0.00007965,
 -0.00005597,-0.00001141,-0.00000734,-0.00000052,-0.00000888,0.00000004
 ,0.00000939,-0.00008403,0.00001985,0.00001721,0.00011272,0.00006553,0.
 00001979,-0.00021362,-0.00045708,-0.00004195,0.00074305,0.00052982,0.0
 0013828,-0.00081203,0.00012434,-0.00067583,0.06803935,0.18033169,-0.05
 981323,-0.11642632,-0.15613794,0.00503854,0.00869871,0.00654423,-0.000
 67490,0.00105326,0.00074984,0.00205345,-0.00029635,-0.00028578,0.00051
 069,0.00045710,0.00036759,-0.00002300,0.00009490,-0.00012809,0.0000525
 8,0.00006179,-0.00000513,-0.00001291,-0.00003375,-0.00000989,0.0000331
 2,0.00002162,0.00000611,-0.00004499,-0.00003733,-0.00002258,0.00000837
 ,-0.00000166,-0.00000941,-0.00000517,0.00000018,0.00000397,-0.00006851
 ,-0.00003308,0.00007815,0.00017443,0.00003372,-0.00013292,-0.00079863,
 -0.00042314,-0.00015372,0.00191084,0.00066623,-0.00085520,-0.00129728,
 -0.00167191,-0.00000913,0.06159516,0.12650430,0.16497547,-0.15320953,0
 .12636289,0.01245281,-0.01495560,0.02505241,0.00205157,-0.00284750,-0.
 00421203,0.00257447,0.00074936,-0.00280776,0.00030587,0.00016042,-0.00
 023423,0.00002151,-0.00004065,0.00015200,-0.00026719,0.00000056,0.0000
 6893,-0.00002833,0.00004519,-0.00004393,-0.00003969,-0.00002806,0.0000
 1282,0.00005390,0.00002146,-0.00000533,-0.00004074,-0.00003123,-0.0000
 0166,0.00003039,0.00000312,0.00000543,0.00000028,0.00009943,-0.0000028
 8,-0.00005473,-0.00036032,-0.00006785,0.00023848,0.00080866,0.00073531
 ,-0.00007935,-0.00325506,-0.00111123,0.00090114,0.00215701,0.00012306,
 -0.00013211,0.00881005,-0.00927730,-0.00005240,0.16329892,0.12297207,-
 0.18917016,-0.01949156,-0.00614696,0.01218388,-0.00114867,-0.00066511,
 -0.00129530,0.00306650,0.00065008,-0.00139302,-0.00021608,0.00033810,0
 .00019705,0.00005421,-0.00003296,-0.00000946,-0.00013731,0.00002204,0.
 00004051,-0.00000898,0.00002552,-0.00001983,-0.00001406,0.00002723,0.0
 0002932,-0.00000874,0.00000683,-0.00004387,-0.00003452,-0.00003410,-0.
 00000735,0.00001881,0.00000653,0.00001411,0.00001673,-0.00009381,0.000
 00796,-0.00005871,-0.00006140,-0.00000385,0.00004473,0.00004968,-0.000
 16055,0.00020220,-0.00083051,-0.00019229,-0.00021502,-0.00082357,-0.00
 093961,-0.00142263,0.01256943,-0.01335460,0.00080838,-0.13739645,0.204
 61652,0.01397365,-0.02224433,-0.03712898,0.00888444,-0.00839987,-0.003
 98266,0.00183834,0.00255347,-0.00131463,-0.00044161,0.00003741,-0.0006
 9167,0.00007713,-0.00001067,-0.00015683,0.00010915,-0.00000168,0.00000
 624,-0.00002311,-0.00003790,0.00001564,0.00004845,0.00003293,-0.000014
 91,0.00000747,0.00000530,-0.00000234,0.00005169,-0.00000346,-0.0000298
 0,-0.00004983,-0.00000581,0.00003270,0.00000846,0.00001596,0.00001443,
 0.00003172,0.00000213,-0.00011702,-0.00025651,0.00002761,0.00018925,0.
 00103928,0.00068808,0.00013431,-0.00302951,-0.00102260,0.00147386,0.00
 159623,0.00027699,-0.00124457,0.01380211,-0.01301840,-0.00106731,-0.01
 807942,0.01979161,0.04284023,-0.04181245,0.00301302,-0.02261981,0.0070
 5613,-0.01036197,0.02872968,-0.00665176,0.00123424,0.00002893,-0.00127
 067,0.00106120,-0.00222739,0.00010136,0.00027962,-0.00007342,0.0001171
 1,-0.00025014,-0.00000786,0.00008563,-0.00000681,0.00003606,-0.0000135
 2,-0.00000380,-0.00006076,0.00000330,0.00001753,0.00003059,-0.00001001
 ,-0.00002818,-0.00003361,-0.00001802,-0.00000056,0.00001214,0.00000225
 ,0.00000450,0.00000464,-0.00000413,-0.00002511,0.00000634,-0.00013930,
 -0.00002484,0.00005188,-0.00003736,0.00001125,-0.00000077,-0.00052843,
 -0.00087122,0.00009159,-0.00031983,-0.00036951,-0.00066068,-0.00199924
 ,0.00550913,-0.00862390,-0.00169559,0.00937626,-0.01958129,0.04701622,
 0.00439391,-0.08036575,0.09243876,0.00575021,-0.00363280,0.00841946,-0
 .00121212,0.00016262,-0.00010000,-0.00098284,-0.00006506,-0.00155969,0
 .00002245,0.00003214,-0.00024958,0.00018067,-0.00009282,-0.00003081,0.
 00000499,-0.00001750,0.00001764,0.00005185,0.00001640,-0.00005222,-0.0
 0001680,0.00001593,0.00003155,0.00004967,-0.00000057,-0.00005148,-0.00
 005679,-0.00000530,0.00004410,0.00000968,0.00001273,0.00001208,0.00011
 057,-0.00002790,-0.00010197,-0.00040293,-0.00006574,0.00032798,0.00139
 389,0.00087761,0.00013350,-0.00430462,-0.00164277,0.00180734,0.0021736
 0,0.00105164,-0.00149635,-0.00108154,0.01040001,-0.01947717,0.00253571
 ,-0.01055225,0.02131024,-0.00876043,0.08377241,-0.02693669,0.09336901,
 -0.25732637,0.00094082,0.00202781,-0.01018142,0.00229576,0.00140706,0.
 00103434,0.00048388,-0.00053493,-0.00000047,0.00030939,0.00010080,0.00
 006750,-0.00004294,0.00005545,-0.00006842,-0.00001789,0.00001480,-0.00
 001138,0.00002487,0.00001385,0.00000752,0.00004927,-0.00000048,-0.0000
 2026,-0.00000099,-0.00000118,-0.00004171,-0.00003078,-0.00001142,0.000
 01744,0.00000517,0.00001850,0.00001668,-0.00001788,-0.00012217,0.00002
 230,0.00003071,0.00000938,0.00003027,-0.00014996,0.00027803,-0.0000597
 4,-0.00035715,-0.00023515,0.00020189,-0.00017236,-0.00175161,-0.000755
 63,-0.00128634,0.00814921,-0.01401407,0.00003305,-0.00125187,0.0011213
 1,0.02486583,-0.10140320,0.27996067,0.00053342,-0.00029941,-0.00056445
 ,-0.00220427,0.00397392,0.00302451,0.00172654,-0.00029402,-0.00250330,
 -0.00433933,0.01011658,0.02480849,-0.07621071,0.02991885,0.07103637,0.
 00824036,-0.00822469,-0.01388863,0.00072105,0.00087376,-0.00164720,0.0
 0004673,0.00017222,0.00021140,0.00014649,-0.00001609,-0.00012823,-0.00
 003939,0.00003912,0.00008999,0.00005856,-0.00004914,-0.00005222,-0.000
 22222,-0.00001742,-0.00004931,0.00039718,0.00002026,-0.00097485,-0.001
 36655,-0.00384761,0.00018213,0.00006131,0.00073527,-0.00010807,-0.0020
 5138,-0.00688981,0.00162815,-0.00128127,0.00162807,0.00123674,-0.00007
 053,-0.00010674,0.00004085,0.00026292,0.00004425,-0.00001393,0.0001136
 8,0.00012837,-0.00002632,0.07559833,0.00024318,0.00005305,-0.00065919,
 0.00118051,-0.00182936,0.00328402,-0.00041833,-0.00170235,-0.00116424,
 -0.00256224,0.01039452,0.00624424,0.03106858,-0.09455482,-0.09885817,0
 .00511595,-0.00356991,-0.01723305,0.00224474,-0.00046680,0.00071486,-0
 .00011327,0.00006755,0.00017400,0.00013222,0.00006381,-0.00007145,-0.0
 0007622,0.00000444,0.00007494,0.00002470,0.00002181,-0.00009797,-0.000
 08879,-0.00021216,0.00013252,0.00080808,-0.00055649,-0.00051431,-0.004
 37093,0.00033484,-0.00217341,0.00041291,-0.00037481,0.00075536,-0.0054
 4459,0.00387311,-0.00404683,0.00046002,-0.00090191,0.00168264,-0.00012
 588,0.00005403,-0.00000357,0.00011130,0.00004857,0.00000775,0.00020029
 ,0.00013449,-0.00012829,-0.02800211,0.08895069,0.00018921,-0.00016822,
 -0.00003547,-0.00085429,0.00075881,-0.00313728,-0.00267587,-0.00127711
 ,0.00005469,0.00720181,-0.00521740,-0.00618864,0.07263395,-0.09781620,
 -0.24505816,0.00463312,-0.00517630,-0.00586599,0.00025755,0.00195479,0
 .00003854,-0.00018511,-0.00008422,0.00006616,0.00007771,0.00006263,0.0
 0004604,-0.00007011,-0.00002946,0.00002257,0.00005012,-0.00003129,-0.0
 0001245,-0.00014817,0.00006824,-0.00002119,0.00011897,0.00019787,-0.00
 054510,-0.00054486,-0.00264651,0.00156357,-0.00055481,0.00046469,-0.00
 004083,0.00363503,-0.00274077,0.00324079,-0.00038423,0.00062692,-0.001
 19546,0.00001433,-0.00002091,0.00009657,0.00012412,0.00000930,-0.00006
 374,0.00002863,-0.00000433,-0.00000052,-0.08290967,0.11148335,0.256631
 32,0.00001185,0.00001497,-0.00002570,-0.00000042,0.00000216,0.00024513
 ,0.00011056,0.00000686,-0.00016902,-0.00001209,-0.00030154,-0.00037167
 ,0.00075836,0.00266641,0.00034067,-0.00629812,0.01110360,0.02233028,-0
 .07782093,0.02707681,0.08048183,0.00856353,-0.00717079,-0.01549740,-0.
 00058230,-0.00430079,0.00044959,0.00096174,-0.00076141,-0.00076227,-0.
 00028107,-0.00015284,0.00000021,0.00013228,0.00005850,-0.00007031,-0.0
 0051598,0.00004138,-0.00030009,-0.00285733,-0.00401806,0.00070941,-0.0
 0084222,0.00011052,0.00157392,0.00072909,0.00077956,0.00039317,-0.0002
 2475,-0.00019654,-0.00011297,0.00000176,-0.00000067,-0.00000602,0.0000
 0506,-0.00000380,0.00000973,0.00000726,0.00001615,0.00000034,-0.000124
 70,-0.00072453,-0.00066243,0.07853625,0.00003117,-0.00000907,0.0000141
 5,-0.00014426,0.00008219,-0.00012685,0.00008057,-0.00000644,0.00003898
 ,0.00023963,0.00005901,-0.00019018,0.00076579,-0.00093455,0.00212192,-
 0.00313910,0.00536317,0.00842377,0.02690378,-0.08662633,-0.10242174,0.
 00789162,-0.00516233,-0.01769158,-0.00504629,0.00126017,-0.00274874,0.
 00037525,0.00031072,-0.00169697,-0.00043939,-0.00023436,0.00013560,0.0
 0019084,0.00009944,0.00001469,0.00003326,-0.00062623,0.00036637,-0.003
 06541,0.00136599,-0.00102744,-0.00064988,0.00055420,0.00034429,0.00014
 328,0.00026694,0.00028776,0.00002234,-0.00008900,-0.00007740,0.0000093
 7,0.00000319,0.00000134,0.00001001,0.00000736,-0.00000169,-0.00000653,
 -0.00000313,-0.00000182,0.00015553,0.00009900,-0.00035774,-0.02637578,
 0.08610611,-0.00000320,0.00002879,0.00000333,0.00004180,-0.00025918,-0
 .00013032,-0.00006668,0.00010563,0.00012001,0.00037968,0.00029908,0.00
 011205,-0.00229885,0.00040302,-0.00032224,0.00254509,-0.00445235,-0.00
 714341,0.08024377,-0.10257813,-0.24543263,0.00542385,-0.00407479,-0.00
 812486,-0.00058585,-0.00342203,0.00229903,0.00081611,-0.00066950,-0.00
 037941,-0.00039761,-0.00012330,0.00014214,0.00011342,0.00013418,0.0000
 4850,-0.00031113,0.00035937,-0.00013104,0.00203264,-0.00016626,0.00203
 231,0.00051815,-0.00034287,-0.00021564,-0.00049064,-0.00028765,0.00001
 049,0.00019107,0.00012050,-0.00005313,0.00000792,0.00001042,0.00000343
 ,-0.00001078,-0.00000386,-0.00000889,0.00000853,-0.00000767,-0.0000006
 2,0.00055969,0.00043806,0.00035756,-0.08743583,0.11240862,0.25753556,-
 0.00000680,-0.00004356,-0.00000790,-0.00001105,0.00017485,0.00012517,-
 0.00000650,-0.00005374,-0.00008275,-0.00027711,-0.00008571,-0.00026133
 ,-0.00021847,-0.00017227,0.00066874,0.00229778,-0.00377120,-0.00045289
 ,-0.00999232,-0.00269517,0.00610625,-0.26143071,-0.08287702,0.09473257
 ,-0.00651831,-0.00409562,0.00190181,0.00010731,0.00098014,-0.00110909,
 -0.00037507,0.00026678,0.00036597,-0.00020986,-0.00020805,0.00003619,0
 .00202608,-0.00063441,0.00165875,0.00026263,0.00035536,-0.00001378,-0.
 00019342,0.00028784,-0.00017963,0.00010161,-0.00003340,-0.00013536,-0.
 00004552,-0.00001174,0.00006388,-0.00001273,-0.00001114,0.00000079,0.0
 0000394,0.00000076,0.00000013,-0.00000503,-0.00000075,0.00000073,0.000
 02708,-0.00003127,0.00002831,-0.00025075,0.00175809,-0.00123097,0.2746
 1288,-0.00003285,-0.00000392,-0.00004710,0.00002205,0.00003273,0.00022
 154,0.00000769,-0.00005563,-0.00006266,-0.00005443,-0.00047519,-0.0000
 0698,-0.00093560,0.00045967,0.00039227,-0.00325471,0.00172501,-0.00520
 505,-0.01735465,-0.00334463,0.00978879,-0.08298024,-0.06796866,0.02131
 154,0.01144099,0.00642223,-0.00403101,0.00036413,-0.00063553,0.0024348
 7,0.00035919,-0.00013550,0.00001505,0.00051821,0.00027487,-0.00029469,
 -0.00117700,0.00153057,-0.00352666,-0.00000739,-0.00066917,-0.00050823
 ,0.00041075,-0.00022894,0.00046964,0.00003069,-0.00012403,-0.00020436,
 -0.00005176,0.00004790,0.00005330,-0.00001764,-0.00000688,-0.00000089,
 -0.00000609,-0.00000259,0.00000280,0.00000531,0.00000339,-0.00000076,-
 0.00002395,0.00006412,-0.00003720,0.00198262,-0.00164795,0.00191013,0.
 09083988,0.06481222,0.00000698,-0.00003741,-0.00000688,-0.00008703,0.0
 0008343,0.00005339,0.00000254,-0.00000715,-0.00002774,-0.00021804,0.00
 002101,-0.00020830,-0.00039174,-0.00029771,0.00072670,0.00026391,-0.00
 473850,0.00077085,-0.01425474,-0.00346268,0.00897995,0.09459049,0.0212
 1733,-0.08534528,0.02347999,0.01001463,-0.00543860,-0.00196462,0.00187
 805,0.00175920,0.00049434,0.00009860,-0.00068999,0.00104507,0.00036189
 ,-0.00029221,0.00090557,-0.00401692,-0.00156223,-0.00051772,-0.0008365
 6,-0.00099246,-0.00000871,0.00058081,-0.00001976,-0.00004643,-0.000146
 52,-0.00015834,0.00000838,0.00001718,0.00005948,-0.00000825,-0.0000067
 8,0.00000330,0.00000378,0.00000311,-0.00000055,-0.00000404,-0.00000180
 ,0.00000245,0.00003853,-0.00003052,0.00002923,-0.00091912,0.00211336,-
 0.00054735,-0.10230579,-0.02248196,0.08313404,-0.00000281,-0.00000429,
 0.00000047,0.00001988,0.00000411,0.00000032,-0.00001524,-0.00001158,-0
 .00000852,0.00002068,-0.00000110,-0.00001779,0.00005130,-0.00002068,-0
 .00018031,-0.00046883,-0.00006308,-0.00027371,-0.00036813,-0.00011555,
 0.00038485,0.00148636,0.00038542,0.00084100,-0.00346314,-0.00115819,0.
 00338042,0.00557915,0.01879457,0.01733727,-0.08059102,-0.08215634,-0.0
 6247207,0.00361771,-0.00989573,-0.01552409,-0.00267825,-0.00442242,0.0
 0154376,0.00120693,-0.00039296,-0.00054187,0.00009116,-0.00007180,-0.0
 0001057,0.00012171,0.00011572,0.00004682,-0.00006195,-0.00002335,0.000
 00366,-0.00000077,-0.00000136,-0.00000142,0.00000114,0.00000041,0.0000
 0174,0.00000020,0.00000199,-0.00000020,-0.00002264,-0.00004151,-0.0000
 0757,-0.00001945,0.00026091,-0.00007078,0.00002119,-0.00004538,-0.0000
 4109,0.07583324,-0.00000694,-0.00000068,-0.00000065,0.00002308,0.00004
 285,0.00001929,-0.00000481,-0.00002254,-0.00001740,-0.00005600,-0.0000
 1835,0.00002141,0.00012328,-0.00003692,-0.00000107,-0.00003246,-0.0005
 3281,0.00022689,0.00000350,0.00021653,-0.00002907,-0.00063437,0.000914
 65,-0.00069069,-0.00025305,0.00202498,0.00018594,0.00145700,-0.0031233
 8,0.00007148,-0.07687725,-0.17678562,-0.14350614,0.00162717,-0.0025771
 5,-0.00734019,-0.00371895,0.00208111,-0.00184070,-0.00011673,0.0005843
 7,-0.00076591,-0.00000708,0.00009823,-0.00012074,0.00005689,-0.0000030
 0,-0.00004967,-0.00004128,-0.00002082,0.00003899,-0.00000149,-0.000001
 99,-0.00000106,0.00000049,-0.00000077,0.00000054,-0.00000069,0.0000008
 2,0.00000063,-0.00002492,0.00000577,-0.00001494,0.00016735,-0.00025789
 ,0.00018316,-0.00000571,0.00001504,-0.00003709,0.07773670,0.17861758,-
 0.00000320,-0.00000303,0.00000298,0.00002663,0.00003640,0.00004038,0.0
 0000089,-0.00001125,-0.00002331,-0.00009401,-0.00002820,0.00004851,0.0
 0001960,0.00012904,0.00004512,-0.00023186,0.00025424,-0.00011222,0.000
 55050,0.00007894,-0.00015286,-0.00057530,-0.00161262,0.00010446,0.0046
 3770,0.00100473,-0.00074088,-0.00674608,-0.01560181,-0.01969634,-0.055
 13757,-0.13873223,-0.16632073,0.00048054,0.00307392,0.00548428,0.00252
 100,-0.00120405,0.00187483,-0.00015797,-0.00051625,0.00063720,0.000079
 67,-0.00006205,0.00003157,-0.00003503,-0.00010300,-0.00011563,-0.00002
 116,0.00002282,0.00002879,-0.00000160,-0.00000118,-0.00000044,-0.00000
 120,-0.00000042,0.00000011,-0.00000088,-0.00000076,-0.00000054,0.00001
 546,0.00000005,0.00001884,-0.00020077,0.00009853,-0.00018024,0.0000140
 1,-0.00000123,0.00003109,0.05583500,0.15264486,0.17970897,0.00000379,0
 .00000174,0.00000025,-0.00001790,-0.00004101,-0.00002624,-0.00000305,0
 .00002836,0.00003180,0.00000558,0.00003087,0.00004631,0.00000431,0.000
 00186,0.00003337,-0.00000543,0.00003402,0.00009813,-0.00003162,0.00008
 545,-0.00008820,0.00032536,-0.00000560,0.00027606,0.00004868,-0.002665
 59,-0.00095485,-0.00039127,-0.00405715,0.00252398,-0.00911796,0.005656
 73,0.01361287,-0.21694844,-0.01615618,0.15033739,0.00409317,0.00108709
 ,-0.00294260,-0.00037614,0.00033970,-0.00012364,-0.00012317,-0.0000176
 6,-0.00014706,-0.00000111,-0.00005895,-0.00008250,-0.00002529,0.000046
 63,0.00004659,0.00000087,0.00000335,0.00000353,-0.00000372,-0.00000051
 ,-0.00000452,0.00000220,-0.00000489,-0.00000032,-0.00000065,-0.0000027
 8,0.00000429,0.00001236,-0.00000480,0.00002060,0.00009316,-0.00003979,
 -0.00007226,-0.00035844,0.00058623,-0.00097438,0.22281470,-0.00000066,
 0.00000161,0.00000089,-0.00002536,-0.00000764,-0.00001001,0.00000289,0
 .00001883,0.00003940,-0.00003942,0.00005163,0.00009425,0.00009053,0.00
 010033,0.00000420,-0.00008330,-0.00001776,-0.00002008,0.00007326,-0.00
 010672,0.00014742,0.00064251,0.00094342,-0.00015866,-0.00184058,-0.001
 48194,-0.00468398,-0.00640477,0.00328042,-0.00165039,-0.00781721,0.001
 99680,0.01366246,-0.01536994,-0.03917800,-0.00469375,0.01407773,0.0033
 2143,-0.00695585,0.00105874,0.00020085,0.00075966,-0.00046201,-0.00029
 416,0.00036832,-0.00018405,-0.00018063,-0.00008185,-0.00002719,0.00000
 096,0.00008895,-0.00000001,0.00000300,0.00000469,-0.00000361,0.0000002
 4,-0.00000641,-0.00000255,-0.00000862,-0.00000164,-0.00001028,-0.00000
 119,-0.00000399,-0.00002014,0.00001980,-0.00001336,0.00006706,-0.00008
 913,-0.00028779,0.00112548,-0.00122001,0.00053456,0.01515289,0.0326464
 5,-0.00000309,-0.00000129,0.00000241,-0.00000451,0.00000417,0.00002591
 ,-0.00000355,0.00001638,0.00001454,-0.00005133,0.00003072,0.00009847,0
 .00015657,0.00008443,0.00001407,-0.00006480,-0.00012617,-0.00006579,-0
 .00010516,0.00013634,0.00002393,0.00117622,0.00042733,0.00016967,0.000
 19143,-0.00393839,-0.00255429,-0.00073530,-0.00377270,0.00406091,-0.00
 510534,0.00148287,0.00392261,0.15143136,-0.00398289,-0.16820370,0.0151
 0065,0.00478690,-0.00783433,0.00087494,0.00140957,0.00013190,-0.000764
 33,-0.00003335,0.00038579,-0.00025626,-0.00019500,-0.00004097,-0.00005
 596,0.00002222,0.00003607,-0.00000113,0.00000165,0.00000295,-0.0000054
 4,-0.00000314,-0.00000416,-0.00000044,-0.00000560,-0.00000123,-0.00000
 612,-0.00001076,-0.00000104,-0.00000070,-0.00002724,0.00000535,0.00007
 620,-0.00019114,-0.00026000,-0.00022529,0.00102213,-0.00071396,-0.1616
 1860,0.00286295,0.17078488\\-0.00001493,-0.00001588,0.00000594,0.00000
 168,-0.00000288,-0.00001191,-0.00000689,-0.00000205,0.00000636,0.00001
 655,0.00000469,-0.00000595,-0.00002123,-0.00000367,0.00001061,-0.00000
 489,0.00000208,-0.00000228,0.00000979,0.00000330,-0.00000136,-0.000006
 61,-0.00000197,0.00000814,-0.00000606,-0.00001374,-0.00002637,-0.00000
 567,0.00001330,0.00002069,0.00002767,-0.00000807,-0.00002251,-0.000005
 72,0.00000357,-0.00000612,0.00000162,0.00000202,0.00001278,0.00002524,
 -0.00000063,-0.00000582,-0.00001463,-0.00000307,0.00000087,-0.00000363
 ,0.00000724,0.00001656,0.00000634,0.00000392,-0.00000283,0.00000105,0.
 00000672,0.00000386,0.00000221,0.00000277,0.00000590,-0.00000065,0.000
 00739,0.00000130,0.00000012,-0.00000201,0.00000019,-0.00000409,-0.0000
 0176,-0.00000281,0.00000089,-0.00000386,-0.00000687,-0.00000118,-0.000
 00166,0.00000107,0.00000299,0.00000427,0.00000054\\\@


 A MAN SHOULD NEVER BE ASHAMED TO OWN HE HAS BEEN IN THE WRONG
 WHICH IS BUT SAYING IN OTHER WORDS,
 THAT HE IS WISER TODAY THAN HE WAS YESTERDAY.

                          -- JONATHAN SWIFT
 Job cpu time:  0 days  0 hours 24 minutes 55.0 seconds.
 File lengths (MBytes):  RWF=    260 Int=      0 D2E=      0 Chk=      7 Scr=      1
 Normal termination of Gaussian 09 at Wed Aug 21 16:49:37 2019.
